 Entering Gaussian System, Link 0=g09
 Input=buta02.com
 Output=buta02.log
 Initial command:
 /home/student/g09/l1.exe /home/student/singh/Gau-20777.inp -scrdir=/home/student/singh/
 Entering Link 1 = /home/student/g09/l1.exe PID=     20779.
  
 Copyright (c) 1988,1990,1992,1993,1995,1998,2003,2009,2011,
            Gaussian, Inc.  All Rights Reserved.
  
 This is part of the Gaussian(R) 09 program.  It is based on
 the Gaussian(R) 03 system (copyright 2003, Gaussian, Inc.),
 the Gaussian(R) 98 system (copyright 1998, Gaussian, Inc.),
 the Gaussian(R) 94 system (copyright 1995, Gaussian, Inc.),
 the Gaussian 92(TM) system (copyright 1992, Gaussian, Inc.),
 the Gaussian 90(TM) system (copyright 1990, Gaussian, Inc.),
 the Gaussian 88(TM) system (copyright 1988, Gaussian, Inc.),
 the Gaussian 86(TM) system (copyright 1986, Carnegie Mellon
 University), and the Gaussian 82(TM) system (copyright 1983,
 Carnegie Mellon University). Gaussian is a federally registered
 trademark of Gaussian, Inc.
  
 This software contains proprietary and confidential information,
 including trade secrets, belonging to Gaussian, Inc.
  
 This software is provided under written license and may be
 used, copied, transmitted, or stored only in accord with that
 written license.
  
 The following legend is applicable only to US Government
 contracts under FAR:
  
                    RESTRICTED RIGHTS LEGEND
  
 Use, reproduction and disclosure by the US Government is
 subject to restrictions as set forth in subparagraphs (a)
 and (c) of the Commercial Computer Software - Restricted
 Rights clause in FAR 52.227-19.
  
 Gaussian, Inc.
 340 Quinnipiac St., Bldg. 40, Wallingford CT 06492
  
  
 ---------------------------------------------------------------
 Warning -- This program may not be used in any manner that
 competes with the business of Gaussian, Inc. or will provide
 assistance to any competitor of Gaussian, Inc.  The licensee
 of this program is prohibited from giving any competitor of
 Gaussian, Inc. access to this program.  By using this program,
 the user acknowledges that Gaussian, Inc. is engaged in the
 business of creating and licensing software in the field of
 computational chemistry and represents and warrants to the
 licensee that it is not a competitor of Gaussian, Inc. and that
 it will not use this program in any manner prohibited above.
 ---------------------------------------------------------------
  

 Cite this work as:
 Gaussian 09, Revision C.01,
 M. J. Frisch, G. W. Trucks, H. B. Schlegel, G. E. Scuseria, 
 M. A. Robb, J. R. Cheeseman, G. Scalmani, V. Barone, B. Mennucci, 
 G. A. Petersson, H. Nakatsuji, M. Caricato, X. Li, H. P. Hratchian, 
 A. F. Izmaylov, J. Bloino, G. Zheng, J. L. Sonnenberg, M. Hada, 
 M. Ehara, K. Toyota, R. Fukuda, J. Hasegawa, M. Ishida, T. Nakajima, 
 Y. Honda, O. Kitao, H. Nakai, T. Vreven, J. A. Montgomery, Jr., 
 J. E. Peralta, F. Ogliaro, M. Bearpark, J. J. Heyd, E. Brothers, 
 K. N. Kudin, V. N. Staroverov, T. Keith, R. Kobayashi, J. Normand, 
 K. Raghavachari, A. Rendell, J. C. Burant, S. S. Iyengar, J. Tomasi, 
 M. Cossi, N. Rega, J. M. Millam, M. Klene, J. E. Knox, J. B. Cross, 
 V. Bakken, C. Adamo, J. Jaramillo, R. Gomperts, R. E. Stratmann, 
 O. Yazyev, A. J. Austin, R. Cammi, C. Pomelli, J. W. Ochterski, 
 R. L. Martin, K. Morokuma, V. G. Zakrzewski, G. A. Voth, 
 P. Salvador, J. J. Dannenberg, S. Dapprich, A. D. Daniels, 
 O. Farkas, J. B. Foresman, J. V. Ortiz, J. Cioslowski, 
 and D. J. Fox, Gaussian, Inc., Wallingford CT, 2010.
 
 ******************************************
 Gaussian 09:  EM64L-G09RevC.01 23-Sep-2011
                 2-Mar-2021 
 ******************************************
 %chk=buta02.chk
 -----------------------------------------------------
 # b3lyp/6-31g* geom=connectivity td=(50-50,nstates=3)
 -----------------------------------------------------
 1/38=1,57=2/1;
 2/12=2,17=6,18=5,40=1/2;
 3/5=1,6=6,7=1,11=2,16=1,25=1,30=1,74=-5/1,2,8,3;
 4//1;
 5/5=2,38=5/2;
 8/6=1,10=2,108=3/1;
 9/41=3,42=1,48=2/14;
 6/7=2,8=2,9=2,10=2/1;
 99/5=1,9=1/99;
 -------------------
 Title Card Required
 -------------------
 Charge =  0 Multiplicity = 1
 Symbolic Z-Matrix:
 C                    -2.7483   -0.17544   0.03598 
 H                    -2.21514  -1.10314   0.03598 
 H                    -3.8183   -0.17544   0.03598 
 C                    -2.07303   0.99954   0.03598 
 H                    -2.60619   1.92724   0.03598 
 C                    -0.53303   0.99954   0.03598 
 H                     0.00014   0.07183   0.03598 
 C                     0.14922   2.17048   0.03598 
 H                    -0.37843   3.10134   0.03598 
 H                     1.2192    2.16413   0.03598 
 
                          Input orientation:                          
 ---------------------------------------------------------------------
 Center     Atomic      Atomic             Coordinates (Angstroms)
 Number     Number       Type             X           Y           Z
 ---------------------------------------------------------------------
      1          6           0       -2.748303   -0.175439    0.035977
      2          1           0       -2.215139   -1.103144    0.035977
      3          1           0       -3.818303   -0.175439    0.035977
      4          6           0       -2.073028    0.999539    0.035977
      5          1           0       -2.606192    1.927244    0.035977
      6          6           0       -0.533028    0.999539    0.035977
      7          1           0        0.000135    0.071834    0.035977
      8          6           0        0.149215    2.170483    0.035977
      9          1           0       -0.378427    3.101339    0.035977
     10          1           0        1.219196    2.164126    0.035977
 ---------------------------------------------------------------------
                    Distance matrix (angstroms):
                    1          2          3          4          5
     1  C    0.000000
     2  H    1.070000   0.000000
     3  H    1.070000   1.852234   0.000000
     4  C    1.355200   2.107479   2.103938   0.000000
     5  H    2.107479   3.055514   2.427032   1.070000   0.000000
     6  C    2.507591   2.692725   3.489068   1.540000   2.271265
     7  H    2.759539   2.507591   3.826436   2.271265   3.199295
     8  C    3.728131   4.038168   4.609181   2.511867   2.766123
     9  H    4.043956   4.588157   4.750791   2.699859   2.518221
    10  H    4.605932   4.740222   5.554274   3.492135   3.832716
                    6          7          8          9         10
     6  C    0.000000
     7  H    1.070000   0.000000
     8  C    1.355200   2.103938   0.000000
     9  H    2.107479   3.053066   1.070000   0.000000
    10  H    2.103938   2.421528   1.070000   1.852234   0.000000
 Stoichiometry    C4H6
 Framework group  CS[SG(C4H6)]
 Deg. of freedom    17
 Full point group                 CS      NOp   2
 Largest Abelian subgroup         CS      NOp   2
 Largest concise Abelian subgroup C1      NOp   1
                         Standard orientation:                         
 ---------------------------------------------------------------------
 Center     Atomic      Atomic             Coordinates (Angstroms)
 Number     Number       Type             X           Y           Z
 ---------------------------------------------------------------------
      1          6           0        1.171565   -1.449121    0.000000
      2          1           0        2.100090   -0.917387    0.000000
      3          1           0        1.169918   -2.519120    0.000000
      4          6           0       -0.002371   -0.772039    0.000000
      5          1           0       -0.930895   -1.303774    0.000000
      6          6           0        0.000000    0.767959    0.000000
      7          1           0        0.928525    1.299694    0.000000
      8          6           0       -1.169893    1.452004    0.000000
      9          1           0       -2.101560    0.925796    0.000000
     10          1           0       -1.161888    2.521974    0.000000
 ---------------------------------------------------------------------
 Rotational constants (GHZ):     38.8125628      4.3599464      3.9196400
 Standard basis: 6-31G(d) (6D, 7F)
 There are    56 symmetry adapted basis functions of A'  symmetry.
 There are    16 symmetry adapted basis functions of A"  symmetry.
 Integral buffers will be    131072 words long.
 Raffenetti 2 integral format.
 Two-electron integral symmetry is turned on.
    72 basis functions,   136 primitive gaussians,    72 cartesian basis functions
    15 alpha electrons       15 beta electrons
       nuclear repulsion energy       102.4963777560 Hartrees.
 NAtoms=   10 NActive=   10 NUniq=   10 SFac= 1.00D+00 NAtFMM=   60 NAOKFM=F Big=F
 One-electron integrals computed using PRISM.
 NBasis=    72 RedAO= T  NBF=    56    16
 NBsUse=    72 1.00D-06 NBFU=    56    16
 Harris functional with IExCor=  402 diagonalized for initial guess.
 ExpMin= 1.61D-01 ExpMax= 3.05D+03 ExpMxC= 4.57D+02 IAcc=1 IRadAn=         1 AccDes= 0.00D+00
 HarFok:  IExCor=  402 AccDes= 0.00D+00 IRadAn=         1 IDoV= 1
 ScaDFX=  1.000000  1.000000  1.000000  1.000000
 FoFCou: FMM=F IPFlag=           0 FMFlag=      100000 FMFlg1=           0
         NFxFlg=           0 DoJE=T BraDBF=F KetDBF=T FulRan=T
         Omega=  0.000000  0.000000  1.000000  0.000000  0.000000 ICntrl=     500 IOpCl=  0
         NMat0=    1 NMatS0=    1 NMatT0=    0 NMatD0=    1 NMtDS0=    0 NMtDT0=    0
         I1Cent=           4 NGrid=           0.
 Petite list used in FoFCou.
 Initial guess orbital symmetries:
       Occupied  (A') (A') (A') (A') (A') (A') (A') (A') (A') (A')
                 (A') (A') (A') (A") (A")
       Virtual   (A") (A") (A') (A') (A') (A') (A') (A') (A') (A')
                 (A') (A') (A') (A") (A") (A') (A') (A') (A') (A")
                 (A") (A') (A') (A') (A') (A') (A') (A') (A') (A')
                 (A') (A") (A') (A') (A") (A") (A") (A") (A') (A')
                 (A') (A') (A") (A') (A') (A') (A") (A') (A") (A')
                 (A') (A') (A') (A') (A') (A') (A')
 The electronic state of the initial guess is 1-A'.
 Requested convergence on RMS density matrix=1.00D-08 within 128 cycles.
 Requested convergence on MAX density matrix=1.00D-06.
 Requested convergence on             energy=1.00D-06.
 No special actions if energy rises.
 Keep R1 ints in memory in canonical form, NReq=4464884.
 Integral accuracy reduced to 1.0D-05 until final iterations.
 Initial convergence to 1.0D-05 achieved.  Increase integral accuracy.
 SCF Done:  E(RB3LYP) =  -155.984900948     A.U. after   12 cycles
             Convg  =    0.7367D-08             -V/T =  2.0106
 ExpMin= 1.61D-01 ExpMax= 3.05D+03 ExpMxC= 4.57D+02 IAcc=3 IRadAn=         5 AccDes= 0.00D+00
 HarFok:  IExCor=  205 AccDes= 0.00D+00 IRadAn=         5 IDoV=-2
 ScaDFX=  1.000000  1.000000  1.000000  1.000000
 Range of M.O.s used for correlation:     5    72
 NBasis=    72 NAE=    15 NBE=    15 NFC=     4 NFV=     0
 NROrb=     68 NOA=    11 NOB=    11 NVA=    57 NVB=    57
 Orbital symmetries:
       Occupied  (A') (A') (A') (A') (A') (A') (A') (A') (A') (A')
                 (A') (A') (A') (A") (A")
       Virtual   (A") (A") (A') (A') (A') (A') (A') (A') (A') (A')
                 (A') (A') (A') (A") (A") (A') (A') (A") (A') (A")
                 (A') (A') (A') (A') (A') (A') (A') (A') (A') (A')
                 (A') (A') (A') (A") (A") (A") (A") (A") (A') (A')
                 (A') (A') (A") (A') (A') (A') (A") (A") (A') (A')
                 (A') (A') (A') (A') (A') (A') (A')
    24 initial guesses have been made.
 Convergence on wavefunction:    0.001000000000000
 Iteration     1 Dimension    24 NMult    24
 CISAX will form    24 AO SS matrices at one time.
 New state      1 was old state      2
 New state      2 was old state      4
 New state      3 was old state      6
 New state      4 was old state      1
 No map to state      6
 Iteration     2 Dimension    36 NMult    36
 Renormalizing I=  6 Err= 6.07D-02
 New state      3 was old state      4
 New state      4 was old state      3
 Iteration     3 Dimension    48 NMult    48
 Renormalizing I=  6 Err= 5.76D-02
 Iteration     4 Dimension    58 NMult    58
 Renormalizing I=  6 Err= 5.76D-02
 Iteration     5 Dimension    64 NMult    64
 Renormalizing I=  6 Err= 5.76D-02
 ***********************************************************************
 Excited states from <AA,BB:AA,BB> singles matrix:
 ***********************************************************************
 
 Ground to excited state transition densities written to RWF  633
 Ground to excited state transition electric dipole moments (Au):
       state          X           Y           Z        Dip. S.      Osc.
         1         0.0000      0.0000      0.0000      0.0000      0.0000
         2         0.0000      0.0000      0.0000      0.0000      0.0000
         3         1.3581     -1.4649      0.0000      3.9903      0.5904
         4         0.0000      0.0000      0.0000      0.0000      0.0000
         5        -0.0098      0.0101      0.0000      0.0002      0.0000
         6         0.0000      0.0000     -0.0238      0.0006      0.0001
 Ground to excited state transition velocity dipole moments (Au):
       state          X           Y           Z        Dip. S.      Osc.
         1         0.0000      0.0000      0.0000      0.0000      0.0000
         2         0.0000      0.0000      0.0000      0.0000      0.0000
         3        -0.2983      0.3116      0.0000      0.1861      0.5590
         4         0.0000      0.0000      0.0000      0.0000      0.0000
         5         0.0024     -0.0024      0.0000      0.0000      0.0000
         6         0.0000      0.0000     -0.0150      0.0002      0.0006
 Ground to excited state transition magnetic dipole moments (Au):
       state          X           Y           Z
         1         0.0000      0.0000      0.0000
         2         0.0000      0.0000      0.0000
         3         0.0000      0.0000     -0.0045
         4         0.0000      0.0000      0.0000
         5         0.0000      0.0000     -0.2349
         6        -0.0035     -0.0064      0.0000
 Ground to excited state transition velocity quadrupole moments (Au):
       state          XX          YY          ZZ          XY          XZ          YZ
         1         0.0000      0.0000      0.0000      0.0000      0.0000      0.0000
         2         0.0000      0.0000      0.0000      0.0000      0.0000      0.0000
         3        -0.0017      0.0024      0.0000      0.0006      0.0000      0.0000
         4         0.0000      0.0000      0.0000      0.0000      0.0000      0.0000
         5        -0.0207      0.0155     -0.0237      0.0395      0.0000      0.0000
         6         0.0000      0.0000      0.0000      0.0000      0.0006     -0.0003
 <0|del|b> * <b|rxdel|0> + <0|del|b> * <b|delr+rdel|0>
 Rotatory Strengths (R) in cgs (10**-40 erg-esu-cm/Gauss)
       state          XX          YY          ZZ    R(velocity)
         1         0.0000      0.0000      0.0000      0.0000
         2         0.0000      0.0000      0.0000      0.0000
         3         0.0000      0.0000      0.0000      0.0000
         4         0.0000      0.0000      0.0000      0.0000
         5         0.0000      0.0000      0.0000      0.0000
         6         0.0000      0.0000      0.0000      0.0000
 1/2[<0|r|b>*<b|rxdel|0> + (<0|rxdel|b>*<b|r|0>)*]
 Rotatory Strengths (R) in cgs (10**-40 erg-esu-cm/Gauss)
       state          XX          YY          ZZ     R(length)
         1         0.0000      0.0000      0.0000      0.0000
         2         0.0000      0.0000      0.0000      0.0000
         3         0.0000      0.0000      0.0000      0.0000
         4         0.0000      0.0000      0.0000      0.0000
         5         0.0000      0.0000      0.0000      0.0000
         6         0.0000      0.0000      0.0000      0.0000
  1/2[<0|del|b>*<b|r|0> + (<0|r|b>*<b|del|0>)*] (Au)
       state          X           Y           Z        Dip. S.   Osc.(frdel)
         1         0.0000      0.0000      0.0000      0.0000      0.0000
         2         0.0000      0.0000      0.0000      0.0000      0.0000
         3        -0.4051     -0.4565      0.0000      0.8616      0.5744
         4         0.0000      0.0000      0.0000      0.0000      0.0000
         5         0.0000      0.0000      0.0000      0.0000      0.0000
         6         0.0000      0.0000      0.0004     -0.0004     -0.0002

 Excitation energies and oscillator strengths:
 
 Excited State   1:      Triplet-A'     2.8668 eV  432.49 nm  f=0.0000  <S**2>=2.000
      14 -> 17        -0.17581
      15 -> 16         0.70464
      15 <- 16         0.15111
 This state for optimization and/or second-order correction.
 Total Energy, E(TD-HF/TD-KS) =  -155.879548925    
 Copying the excited state density for this state as the 1-particle RhoCI density.
 
 Excited State   2:      Triplet-A'     4.6271 eV  267.95 nm  f=0.0000  <S**2>=2.000
      14 -> 16         0.53522
      15 -> 17        -0.47289
 
 Excited State   3:      Singlet-A'     6.0389 eV  205.31 nm  f=0.5904  <S**2>=0.000
      15 -> 16         0.70474
      15 <- 16        -0.10371
 
 Excited State   4:      Triplet-A'     6.8122 eV  182.00 nm  f=0.0000  <S**2>=2.000
      14 -> 16         0.46793
      15 -> 17         0.53008
 
 Excited State   5:      Singlet-A'     6.9335 eV  178.82 nm  f=0.0000  <S**2>=0.000
      14 -> 16         0.50843
      15 -> 17         0.49112
 
 Excited State   6:      Singlet-A"     7.0966 eV  174.71 nm  f=0.0001  <S**2>=0.000
      13 -> 16         0.70237
 SavETr:  write IOETrn=   770 NScale= 10 NData=  16 NLR=1 LETran=     118.

 **********************************************************************

            Population analysis using the SCF density.

 **********************************************************************

 Orbital symmetries:
       Occupied  (A') (A') (A') (A') (A') (A') (A') (A') (A') (A')
                 (A') (A') (A') (A") (A")
       Virtual   (A") (A") (A') (A') (A') (A') (A') (A') (A') (A')
                 (A') (A') (A') (A") (A") (A') (A') (A") (A') (A")
                 (A') (A') (A') (A') (A') (A') (A') (A') (A') (A')
                 (A') (A') (A') (A") (A") (A") (A") (A") (A') (A')
                 (A') (A') (A") (A') (A') (A') (A") (A") (A') (A')
                 (A') (A') (A') (A') (A') (A') (A')
 The electronic state is 1-A'.
 Alpha  occ. eigenvalues --  -10.19692 -10.19662 -10.18039 -10.18019  -0.79031
 Alpha  occ. eigenvalues --   -0.72826  -0.59467  -0.55718  -0.46395  -0.45690
 Alpha  occ. eigenvalues --   -0.39204  -0.38748  -0.34547  -0.30926  -0.22852
 Alpha virt. eigenvalues --   -0.01812   0.07033   0.12183   0.12862   0.13125
 Alpha virt. eigenvalues --    0.18055   0.18563   0.21244   0.31699   0.32339
 Alpha virt. eigenvalues --    0.37310   0.47083   0.52229   0.53507   0.58038
 Alpha virt. eigenvalues --    0.60503   0.61634   0.65452   0.66790   0.67301
 Alpha virt. eigenvalues --    0.68714   0.85833   0.86949   0.87660   0.89752
 Alpha virt. eigenvalues --    0.93389   0.94242   0.96941   1.06732   1.09361
 Alpha virt. eigenvalues --    1.13626   1.31488   1.35115   1.35913   1.43310
 Alpha virt. eigenvalues --    1.52671   1.65321   1.75270   1.75760   1.90278
 Alpha virt. eigenvalues --    1.96342   2.05666   2.10033   2.13268   2.16167
 Alpha virt. eigenvalues --    2.29135   2.38788   2.40642   2.40743   2.59254
 Alpha virt. eigenvalues --    2.70390   2.85627   2.91543   4.06093   4.13019
 Alpha virt. eigenvalues --    4.21423   4.42743
          Condensed to atoms (all electrons):
              1          2          3          4          5          6
     1  C    5.049792   0.373388   0.364960   0.636549  -0.050937  -0.029519
     2  H    0.373388   0.560273  -0.040541  -0.036840   0.005686  -0.011194
     3  H    0.364960  -0.040541   0.559990  -0.024764  -0.006581   0.004120
     4  C    0.636549  -0.036840  -0.024764   4.784777   0.368220   0.429633
     5  H   -0.050937   0.005686  -0.006581   0.368220   0.588875  -0.043436
     6  C   -0.029519  -0.011194   0.004120   0.429633  -0.043436   4.784495
     7  H   -0.003999   0.004606  -0.000001  -0.043582   0.003810   0.368313
     8  C    0.002521   0.000421  -0.000206  -0.029621  -0.003954   0.636776
     9  H    0.000414   0.000015  -0.000006  -0.011128   0.004549  -0.036881
    10  H   -0.000205  -0.000007   0.000003   0.004120  -0.000006  -0.024566
              7          8          9         10
     1  C   -0.003999   0.002521   0.000414  -0.000205
     2  H    0.004606   0.000421   0.000015  -0.000007
     3  H   -0.000001  -0.000206  -0.000006   0.000003
     4  C   -0.043582  -0.029621  -0.011128   0.004120
     5  H    0.003810  -0.003954   0.004549  -0.000006
     6  C    0.368313   0.636776  -0.036881  -0.024566
     7  H    0.589623  -0.051166   0.005731  -0.006710
     8  C   -0.051166   5.050061   0.373327   0.365027
     9  H    0.005731   0.373327   0.560713  -0.040588
    10  H   -0.006710   0.365027  -0.040588   0.559899
 Mulliken atomic charges:
              1
     1  C   -0.342964
     2  H    0.144193
     3  H    0.143025
     4  C   -0.077364
     5  H    0.133775
     6  C   -0.077740
     7  H    0.133375
     8  C   -0.343187
     9  H    0.143854
    10  H    0.143033
 Sum of Mulliken atomic charges =   0.00000
 Mulliken charges with hydrogens summed into heavy atoms:
              1
     1  C   -0.055745
     4  C    0.056410
     6  C    0.055635
     8  C   -0.056300
 Sum of Mulliken charges with hydrogens summed into heavy atoms =   0.00000
 Electronic spatial extent (au):  <R**2>=            339.7999
 Charge=              0.0000 electrons
 Dipole moment (field-independent basis, Debye):
    X=              0.0021    Y=             -0.0041    Z=              0.0000  Tot=              0.0046
 Quadrupole moment (field-independent basis, Debye-Ang):
   XX=            -22.6652   YY=            -22.6676   ZZ=            -28.0289
   XY=              0.5307   XZ=              0.0000   YZ=              0.0000
 Traceless Quadrupole moment (field-independent basis, Debye-Ang):
   XX=              1.7888   YY=              1.7863   ZZ=             -3.5750
   XY=              0.5307   XZ=              0.0000   YZ=              0.0000
 Octapole moment (field-independent basis, Debye-Ang**2):
  XXX=              0.0044  YYY=              0.0052  ZZZ=              0.0000  XYY=              0.0069
  XXY=             -0.0174  XXZ=              0.0000  XZZ=              0.0022  YZZ=             -0.0041
  YYZ=              0.0000  XYZ=              0.0000
 Hexadecapole moment (field-independent basis, Debye-Ang**3):
 XXXX=           -157.6160 YYYY=           -244.0471 ZZZZ=            -29.2501 XXXY=             68.9971
 XXXZ=              0.0000 YYYX=             63.9302 YYYZ=              0.0000 ZZZX=              0.0000
 ZZZY=              0.0000 XXYY=            -70.5474 XXZZ=            -35.4978 YYZZ=            -55.0032
 XXYZ=              0.0000 YYXZ=              0.0000 ZZXY=             26.0253
 N-N= 1.024963777560D+02 E-N=-5.653969021647D+02  KE= 1.543426091222D+02
 Symmetry A'   KE= 1.501621323879D+02
 Symmetry A"   KE= 4.180476734359D+00
 1\1\GINC-NISER-THINKCENTRE-M93P\SP\RB3LYP TD-FC\6-31G(d)\C4H6\STUDENT\
 02-Mar-2021\0\\# b3lyp/6-31g* geom=connectivity td=(50-50,nstates=3)\\
 Title Card Required\\0,1\C,0,-2.74830259,-0.17543859,0.03597725\H,0,-2
 .21513884,-1.10314351,0.03597725\H,0,-3.81830259,-0.17543859,0.0359772
 5\C,0,-2.07302828,0.9995387,0.03597725\H,0,-2.60619203,1.92724362,0.03
 597725\C,0,-0.53302828,0.9995387,0.03597725\H,0,0.00013547,0.07183378,
 0.03597725\C,0,0.14921512,2.17048319,0.03597725\H,0,-0.37842735,3.1013
 3947,0.03597725\H,0,1.21919624,2.16412589,0.03597725\\Version=EM64L-G0
 9RevC.01\State=1-A'\HF=-155.9849009\RMSD=7.367e-09\PG=CS [SG(C4H6)]\\@


 THE NUMBERS ARE MEANINGLESS, BUT THE TRENDS ARE IMPORTANT.
     -- LARRY BURGGRAF
 Job cpu time:  0 days  0 hours  0 minutes 37.9 seconds.
 File lengths (MBytes):  RWF=     19 Int=      0 D2E=      0 Chk=     42 Scr=      1
 Normal termination of Gaussian 09 at Tue Mar  2 11:40:42 2021.
                                                                                                                                                                                                                                                                                                                                                                                                                                                                                                                                                                                                                                                                                                                                                                                                                                                                                                                                                                                                                                                                                                                                                                                                                                                                                                                                                                                                                                                                                                                                                                                                                                                                                                                                                                                                                                                                                                                                                                                                                                                                                                                                                                                                                                                                                                                                                                                                                                                                                                                                                                                                                                                                                                                                                                                                                                                                                                                                                                                                                                                                                                                                                                                                                                                                                                                                                                                                                                                                                                                                                                                                                                                                                                                                                                                                                                                                                                                                                                                                                                                                                                                                                                                                                                                                                                                                                                                                                                                                                                                                                                                                                                                                                                                                                                                                                                                                                                                                                                                                                                                                                                                                                                                                                                                                                                                                                                                                                                                                                                                                                                                                                                                                                                                                                                                                                                                                                                                                                                                                                                                                                                                                                                                                                                                                                                                                                                                                                                                                                                                                                                                                                                                                                                                                                                                                                                                                                                                                                                                                                                                                                                                                                                                                                                                                                                                                                                                                                                                                                                                                                                                                                                                                                                                                                                                                                                                                                                                                                                                                                                                                                                                                                                                                                                                                                                                                                                                                                                                                                                                                                                                                                                                                                                                                                                                                                                                                                                                                                                                                                                                                                                                                                                                                                                                                                                                                                                                                                                                                                                                                                                                                                                                                                                                                                                                                                                                                                                                                                                                                                                                                                                                                                                                                                                                                                                                                                                                                                                                                                                                                                                                                                                                                                                                                                                                                                                                                                                                                                                                                                                                                                                                                                                                                                                                                                                                                                                                                                                                                                                                                                                                                                                                                                                                                                                                                                                                                                                                                                                                                                                                                                                                                                                                                                                                                                                                                                                                                                                                                                                                                                                                                                                                                                                                                                                                                                                                                                                                                                                                                                                                                                                                                                                                                                                                                                                                                                                                                                                                                                                                                                                                                                                                                                                                                                                                                                                                                                                                                                                                                                                                                                                                                                                                                                                                                                                                                                                                                                                                                                                                                                                                                                                                                                                                                                                                                                                                                                                                                                                                                                                                                                                                                                                                                                                                                                                                                                                                                                                                                                                                                                                                                                                                                                                                                                                                                                                                                                                                                                                                                                                                                                                                                                                                                                                                                                                                                                                                                                                                                                                                                                                                                                                                                                                                                                                                                                                                                                                                                                                                                                                                                                                                                                                                                                                                                                                                                                                                                                                                                                                                                                                                                                                                                                                                                                                                                                                                                                                                                                                                                                                                                                                                                                                                                                                                                                                                                                                                                                                                                                                                                                                                                                                                                                                                                                                                                                                                                                                                                                                                                                                                                                                                                                                                                                                                                                                                                                                                                                                                                                                                                                                                                                                                                                                                                                                                                                                                                                                                                                                                                                                                                                                                                                                                                                                                                                                                                                                                                                                                                                                                                                                                                                                                                                                                                                                                                                                                                                                                                                                                                                                                                                                                                                                                                                                                                                                                                                                                                                                                                                                                                                                                                                                                                                                                                                                                                                                                                                                                                                                                                                                                                                                                                                                                                                                                                                                                                                                                                                                                                                                                                                                                                                                                                                                                                                                                                                                                                                                                                                                                                                                                                                                                                                                                                                                                                                                                                                                                                                                                                                                                                                                                                                                                                                                                                                                                                                                                                                                                                                                                                                                                                                                                                                                                                                                                                                                                                                                                                                                                                                                                                                                                                                                                                                                                                                                                                                                                                                                                                                                                                                                                                                                                                                                                                                                                                                                                                                                                                                                                                                                                                                                                                                                                                                                                                                                                                                                                                                                                                                                                                                                                                                                                                                                                                                                                                                                                                                                                                                                                                                                                                                                                                                                                                                                                                                                                                                                                                                                                                                                                                                                                                                                                                                                                                                                                                                                                                                                                                                                                                                                                                                                                                                                                                                                                                                                                                                                                                                                                                                                                                                                                                                                                                                                                                                                                                                                                                                                                                                                                                                                                                                                                                                                                                                                                                                                                                                                                                                                                                                                                                                                                                                                                                                                                                                                                                                                                                                                                                                                                                                                                                                                                                                                                                                                                                                                                                                                                                                                                                                                                                                                                                                                                                                                                                                                                                                                                                                                                                                                                                                                                                                                                                                                                                                                                                                                                                                                                                                                                                                                                                                                                                                                                                                                                                                                                                                                                                                                                                                                                                                                                                                                                                                                                                                                                                                                                                                                                                                                                                                                                                                                                                                                                                                                                                                                                                                                                                                                                                                                                                                                                                                                                                                                                                                                                                                                                                                                                                                                                                                                                                                                                                                                                                                                                                                                                                                                                                                                                                                                                                                                                                                                                                                                                                                                                                                                                                                                                                                                                                                                                                                                                                                                                                                                                                                                                                                                                                                                                                                                                                                                                                                                                                                                                                                                                                                                                                                                                                                                                                                                                                                                                                                                                                                                                                                                                                                                                                                                                                                                                                                                                                                                                                                                                                                                                                                                                                                                                                                                                                                                                                                                                                                                                                                                                                                                                                                                                                                                                                                                                                                                                                                                                                                                                                                                                                                                                                                                                                                                                                                                                                                                                                                                                                                                                                                                                                                                                                                                                                                                                                                                                                                                                                                                                                                                                                                                                                                                                                                                                                                                                                                                                                                                                                                                                                                                                                                                                                                                                                                                                                                                                                                                                                                                                                                                                                                                                                                                                                                                                                                                                                                                                                                                                                                                                                                                                                                                                                                                                                                                                                                                                                                                                                                                                                                                                                                                                                                                                                                                                                                                                                                                                                                                                                                                                                                                                                                                                                                                                                                                                                                                                                                                                                                                                                                                                                                                                                                                                                                                                                                                                                                                                                                                                                                                                                                                                                                                                                                                                                                                                                                                                                                                                                                                                                                                                                                                                                                                                                                                                                                                                                                                                                                                                                                                                                                                                                                                                                                                                                                                                                                                                                                                                                                                                                                                                                                                                                                                                                                                                                                                                                                                                                                                                                                                                                                                                                                                                                                                                                                                                                                                                                                                                                                                                                                                                                                                                                                                                                                                                                                                                                                                                                                                                                                                                                                                                                                                                                                                                                                                                                                                                                                                                                                                                                                                                                                                                                                                                                                                                                                                                                                                                                                                                                                                                                                                                                                                                                                                                                                                                                                                                                                                                                                                                                                                                                                                                                                                                                                                                                                                                                                                                                                                                                                                                                                                                                                                                                                                                                                                                                                                                                                                                                                                                                                                                                                                                                                                                                                                                                                                                                                                                                                                                                                                                                                                                                                                                                                                                                                                                                                                                                                                                                                                                                                                                                                                                                                                                                                                                                                                                                                                                                                                                                                                                                                                                                                                                                                                                                                                                                                                                                                                                                                                                                                                                                                                                                                                                                                                                                                                                                                                                                                                                                                                                                                                                                                                                                                                                                                                                                                                                                                                                                                                                                                                                                                                                                                                                                                                                                                                                                                                                                                                                                                                                                                                                                                                                                                                                                                                                                                                                                                                                                                                                                                                                                                                                                                                                                                                                                                                                                                                                                                                                                                                                                                                                                                                                                                                                                                                                                                                                                                                                                                                                                                                                                                                                                                                                                                                                                                                                                                                                                                                                                                                                                                                                                                                                                                                                                                                                                                                                                                                                                                                                                                                                                                                                                                                                                                                                                                                                                                                                                                                                                                                                                                                                                                                                                                                                                                                                                           Iteration     4 Dimension    48 NMult    48
 Iteration     5 Dimension    58 NMult    58
 Iteration     6 Dimension    64 NMult    64
 Iteration     7 Dimension    66 NMult    66
 Iteration     8 Dimension    68 NMult    68
 ***********************************************************************
 Excited states from <AA,BB:AA,BB> singles matrix:
 ***********************************************************************
 
 Ground to excited state transition densities written to RWF  633
 Ground to excited state transition electric dipole moments (Au):
       state          X           Y           Z        Dip. S.      Osc.
         1         0.0000      0.0000      0.0000      0.0000      0.0000
         2         0.0000      0.0000      0.0000      0.0000      0.0000
         3         1.3580     -1.4659      0.0000      3.9931      0.5906
         4         0.0000      0.0000      0.0000      0.0000      0.0000
         5        -0.0088      0.0090      0.0000      0.0002      0.0000
         6         0.0000      0.0000     -0.0243      0.0006      0.0001
 Ground to excited state transition velocity dipole moments (Au):
       state          X           Y           Z        Dip. S.      Osc.
         1         0.0000      0.0000      0.0000      0.0000      0.0000
         2         0.0000      0.0000      0.0000      0.0000      0.0000
         3        -0.2981      0.3115      0.0000      0.1859      0.5587
         4         0.0000      0.0000      0.0000      0.0000      0.0000
         5         0.0021     -0.0021      0.0000      0.0000      0.0000
         6         0.0000      0.0000     -0.0146      0.0002      0.0005
 Ground to excited state transition magnetic dipole moments (Au):
       state          X           Y           Z
         1         0.0000      0.0000      0.0000
         2         0.0000      0.0000      0.0000
         3         0.0000      0.0000     -0.0048
         4         0.0000      0.0000      0.0000
         5         0.0000      0.0000     -0.2342
         6        -0.0022     -0.0060      0.0000
 Ground to excited state transition velocity quadrupole moments (Au):
       state          XX          YY          ZZ          XY          XZ          YZ
         1         0.0000      0.0000      0.0000      0.0000      0.0000      0.0000
         2         0.0000      0.0000      0.0000      0.0000      0.0000      0.0000
         3        -0.0020      0.0018      0.0000      0.0011      0.0000      0.0000
         4         0.0000      0.0000      0.0000      0.0000      0.0000      0.0000
         5        -0.0204      0.0159     -0.0237      0.0389      0.0000      0.0000
         6         0.0000      0.0000      0.0000      0.0000      0.0005      0.0000
 <0|del|b> * <b|rxdel|0> + <0|del|b> * <b|delr+rdel|0>
 Rotatory Strengths (R) in cgs (10**-40 erg-esu-cm/Gauss)
       state          XX          YY          ZZ    R(velocity)
         1         0.0000      0.0000      0.0000      0.0000
         2         0.0000      0.0000      0.0000      0.0000
         3         0.0000      0.0000      0.0000      0.0000
         4         0.0000      0.0000      0.0000      0.0000
         5         0.0000      0.0000      0.0000      0.0000
         6         0.0000      0.0000      0.0000      0.0000
 1/2[<0|r|b>*<b|rxdel|0> + (<0|rxdel|b>*<b|r|0>)*]
 Rotatory Strengths (R) in cgs (10**-40 erg-esu-cm/Gauss)
       state          XX          YY          ZZ     R(length)
         1         0.0000      0.0000      0.0000      0.0000
         2         0.0000      0.0000      0.0000      0.0000
         3         0.0000      0.0000      0.0000      0.0000
         4         0.0000      0.0000      0.0000      0.0000
         5         0.0000      0.0000      0.0000      0.0000
         6         0.0000      0.0000      0.0000      0.0000
  1/2[<0|del|b>*<b|r|0> + (<0|r|b>*<b|del|0>)*] (Au)
       state          X           Y           Z        Dip. S.   Osc.(frdel)
         1         0.0000      0.0000      0.0000      0.0000      0.0000
         2         0.0000      0.0000      0.0000      0.0000      0.0000
         3        -0.4049     -0.4566      0.0000      0.8615      0.5743
         4         0.0000      0.0000      0.0000      0.0000      0.0000
         5         0.0000      0.0000      0.0000      0.0000      0.0000
[...]
 Sum of Mulliken charges with hydrogens summed into heavy atoms =   0.00000
 Electronic spatial extent (au):  <R**2>=            340.2605
 Charge=              0.0000 electrons
 Dipole moment (field-independent basis, Debye):
    X=             -0.0026    Y=              0.0041    Z=              0.0000  Tot=              0.0048
 Quadrupole moment (field-independent basis, Debye-Ang):
   XX=            -23.5919   YY=            -22.7226   ZZ=            -27.6868
   XY=              0.9538   XZ=              0.0000   YZ=              0.0000
 Traceless Quadrupole moment (field-independent basis, Debye-Ang):
   XX=              1.0752   YY=              1.9445   ZZ=             -3.0197
   XY=              0.9538   XZ=              0.0000   YZ=              0.0000
 Octapole moment (field-independent basis, Debye-Ang**2):
  XXX=             -0.0191  YYY=              0.0187  ZZZ=              0.0000  XYY=             -0.0013
  XXY=              0.0016  XXZ=              0.0000  XZZ=              0.0013  YZZ=              0.0023
  YYZ=              0.0000  XYZ=              0.0000
 Hexadecapole moment (field-independent basis, Debye-Ang**3):
 XXXX=           -161.5165 YYYY=           -247.7871 ZZZZ=            -28.4578 XXXY=             71.9933
 XXXZ=              0.0000 YYYX=             67.3511 YYYZ=              0.0000 ZZZX=              0.0000
 ZZZY=              0.0000 XXYY=            -74.0332 XXZZ=            -36.0334 YYZZ=            -54.2320
 XXYZ=              0.0000 YYXZ=              0.0000 ZZXY=             26.0899
 N-N= 1.025002109539D+02 E-N=-5.656202489762D+02  KE= 1.546931201028D+02
 Calling FoFJK, ICntrl=      5127 FMM=F ISym2X=0 I1Cent= 0 IOpClX= 0 NMat=1 NMatS=1 NMatT=0.
 -------------------------------------------------------------------
 Center     Atomic                   Forces (Hartrees/Bohr)
 Number     Number              X              Y              Z
 -------------------------------------------------------------------
      1        6           0.063361395   -0.046053368    0.000000000
      2        1           0.012463383    0.001515222    0.000000000
      3        1           0.006097606   -0.011339467    0.000000000
      4        6          -0.048012373    0.147172114    0.000000000
      5        1          -0.013672046   -0.000319338    0.000000000
      6        6           0.047611172   -0.146645168    0.000000000
      7        1           0.013951028    0.000035550    0.000000000
      8        6          -0.063871330    0.045439738    0.000000000
      9        1          -0.011952883   -0.001151221    0.000000000
     10        1          -0.005975953    0.011345937    0.000000000
 -------------------------------------------------------------------
 Cartesian Forces:  Max     0.147172114 RMS     0.045103599
 NDeriv=  30 NFrqRd=  0 LFDDif=       1
 NDeriv=  30 NFrqRd=  0 LFDDif=       1
 Re-enter D2Numr: IAtom=  2 IXYZ=1 IStep= 2.
 Standard basis: 6-31G(d) (6D, 7F)
 Integral buffers will be    131072 words long.
 Raffenetti 2 integral format.
 Two-electron integral symmetry is turned off.
    72 basis functions,   136 primitive gaussians,    72 cartesian basis functions
    15 alpha electrons       15 beta electrons
       nuclear repulsion energy       102.4953978465 Hartrees.
 NAtoms=   10 NActive=   10 NUniq=   10 SFac= 1.00D+00 NAtFMM=   60 NAOKFM=F Big=F
 One-electron integrals computed using PRISM.
 NBasis=    72 RedAO= T  NBF=    72
 NBsUse=    72 1.00D-06 NBFU=    72
 Initial guess read from the read-write file.
 B after Tr=     0.000000    0.000000    0.000000
         Rot=    1.000000    0.000000    0.000000    0.000000 Ang=   0.00 deg.
 Requested convergence on RMS density matrix=1.00D-08 within 128 cycles.
 Requested convergence on MAX density matrix=1.00D-06.
 Requested convergence on             energy=1.00D-06.
 No special actions if energy rises.
 Keep R1 ints in memory in canonical form, NReq=4464756.
 SCF Done:  E(RB3LYP) =  -155.984905295     A.U. after    7 cycles
             Convg  =    0.7079D-08             -V/T =  2.0106
 ExpMin= 1.61D-01 ExpMax= 3.05D+03 ExpMxC= 4.57D+02 IAcc=3 IRadAn=         5 AccDes= 0.00D+00
 HarFok:  IExCor=  205 AccDes= 0.00D+00 IRadAn=         5 IDoV=-2
 ScaDFX=  1.000000  1.000000  1.000000  1.000000
 Range of M.O.s used for correlation:     5    72
 NBasis=    72 NAE=    15 NBE=    15 NFC=     4 NFV=     0
 NROrb=     68 NOA=    11 NOB=    11 NVA=    57 NVB=    57
 Generating guess from densities on rwf.
 Convergence on wavefunction:    0.000001000000000
 Iteration     1 Dimension    12 NMult    12
 CISAX will form    12 AO SS matrices at one time.
 Iteration     2 Dimension    24 NMult    24
 Iteration     3 Dimension    36 NMult    36
 Iteration     4 Dimension    46 NMult    46
 Iteration     5 Dimension    48 NMult    48
 Iteration     6 Dimension    50 NMult    50
 ***********************************************************************
 Excited states from <AA,BB:AA,BB> singles matrix:
 ***********************************************************************
 
 Ground to excited state transition densities written to RWF  633
 Ground to excited state transition electric dipole moments (Au):
       state          X           Y           Z        Dip. S.      Osc.
         1         0.0000      0.0000      0.0000      0.0000      0.0000
         2         0.0000      0.0000      0.0000      0.0000      0.0000
         3         1.3579     -1.4655      0.0000      3.9916      0.5906
         4         0.0000      0.0000      0.0000      0.0000      0.0000
         5        -0.0097      0.0099      0.0000      0.0002      0.0000
         6         0.0000      0.0000     -0.0245      0.0006      0.0001
 Ground to excited state transition velocity dipole moments (Au):
       state          X           Y           Z        Dip. S.      Osc.
         1         0.0000      0.0000      0.0000      0.0000      0.0000
         2         0.0000      0.0000      0.0000      0.0000      0.0000
         3        -0.2982      0.3115      0.0000      0.1860      0.5587
         4         0.0000      0.0000      0.0000      0.0000      0.0000
         5         0.0024     -0.0024      0.0000      0.0000      0.0000
         6         0.0000      0.0000     -0.0145      0.0002      0.0005
 Ground to excited state transition magnetic dipole moments (Au):
       state          X           Y           Z
         1         0.0000      0.0000      0.0000
         2         0.0000      0.0000      0.0000
         3         0.0000      0.0000     -0.0046
         4         0.0000      0.0000      0.0000
         5         0.0000      0.0000     -0.2348
         6        -0.0030     -0.0061      0.0000
 Ground to excited state transition velocity quadrupole moments (Au):
       state          XX          YY          ZZ          XY          XZ          YZ
         1         0.0000      0.0000      0.0000      0.0000      0.0000      0.0000
         2         0.0000      0.0000      0.0000      0.0000      0.0000      0.0000
         3        -0.0017      0.0025      0.0000      0.0005      0.0000      0.0000
         4         0.0000      0.0000      0.0000      0.0000      0.0000      0.0000
         5        -0.0208      0.0156     -0.0237      0.0394      0.0000      0.0000
         6         0.0000      0.0000      0.0000      0.0000      0.0006     -0.0003
 <0|del|b> * <b|rxdel|0> + <0|del|b> * <b|delr+rdel|0>
 Rotatory Strengths (R) in cgs (10**-40 erg-esu-cm/Gauss)
       state          XX          YY          ZZ    R(velocity)
         1         0.0000      0.0000      0.0000      0.0000
         2         0.0000      0.0000      0.0000      0.0000
         3         0.0000      0.0000      0.0000      0.0000
         4         0.0000      0.0000      0.0000      0.0000
         5         0.0000      0.0000      0.0000      0.0000
         6         0.0000      0.0000      0.0000      0.0000
 1/2[<0|r|b>*<b|rxdel|0> + (<0|rxdel|b>*<b|r|0>)*]
 Rotatory Strengths (R) in cgs (10**-40 erg-esu-cm/Gauss)
       state          XX          YY          ZZ     R(length)
         1         0.0000      0.0000      0.0000      0.0000
         2         0.0000      0.0000      0.0000      0.0000
         3         0.0000      0.0000      0.0000      0.0000
         4         0.0000      0.0000      0.0000      0.0000
         5         0.0000      0.0000      0.0000      0.0000
         6         0.0000      0.0000      0.0000      0.0000
  1/2[<0|del|b>*<b|r|0> + (<0|r|b>*<b|del|0>)*] (Au)
       state          X           Y           Z        Dip. S.   Osc.(frdel)
         1         0.0000      0.0000      0.0000      0.0000      0.0000
         2         0.0000      0.0000      0.0000      0.0000      0.0000
         3        -0.4050     -0.4565      0.0000      0.8615      0.5743
         4         0.0000      0.0000      0.0000      0.0000      0.0000
         5         0.0000      0.0000      0.0000      0.0000      0.0000
         6         0.0000      0.0000      0.0004     -0.0004     -0.0002

 Excitation energies and oscillator strengths:
 
 Excited state symmetry could not be determined.
 Excited State   1:      Triplet-?Sym    2.8668 eV  432.48 nm  f=0.0000  <S**2>=2.000
      14 -> 17        -0.17581
      15 -> 16         0.70464
      15 <- 16         0.15111
 This state for optimization and/or second-order correction.
 Total Energy, E(TD-HF/TD-KS) =  -155.879551030    
 Copying the excited state density for this state as the 1-particle RhoCI density.
 
 Excited state symmetry could not be determined.
 Excited State   2:      Triplet-?Sym    4.6272 eV  267.95 nm  f=0.0000  <S**2>=2.000
      14 -> 16         0.53522
      15 -> 17        -0.47289
 
 Excited state symmetry could not be determined.
 Excited State   3:      Singlet-?Sym    6.0389 eV  205.31 nm  f=0.5906  <S**2>=0.000
      15 -> 16         0.70474
      15 <- 16        -0.10370
 
 Excited state symmetry could not be determined.
 Excited State   4:      Triplet-?Sym    6.8123 eV  182.00 nm  f=0.0000  <S**2>=2.000
      14 -> 16         0.46793
      15 -> 17         0.53008
 
 Excited state symmetry could not be determined.
 Excited State   5:      Singlet-?Sym    6.9336 eV  178.82 nm  f=0.0000  <S**2>=0.000
      14 -> 16         0.50843
      15 -> 17         0.49112
 
 Excited state symmetry could not be determined.
 Excited State   6:      Singlet-?Sym    7.5054 eV  165.19 nm  f=0.0001  <S**2>=0.000
      13 -> 16         0.70187
 SavETr:  write IOETrn=   770 NScale= 10 NData=  16 NLR=1 LETran=     118.
          IDoAtm=1111111111
          Differentiating once with respect to electric field.
                with respect to dipole field.
          Differentiating once with respect to nuclear coordinates.
          Keep R1 ints in memory in canonical form, NReq=4279810.
          There are     1 degrees of freedom in the 1st order CPHF.  IDoFFX=0.
 LinEq1:  Iter=  0 NonCon=     1 RMS=5.39D-03 Max=8.32D-02
 AX will form     1 AO Fock derivatives at one time.
 LinEq1:  Iter=  1 NonCon=     1 RMS=1.93D-03 Max=3.20D-02
 LinEq1:  Iter=  2 NonCon=     1 RMS=1.10D-03 Max=2.45D-02
 LinEq1:  Iter=  3 NonCon=     1 RMS=6.21D-04 Max=7.68D-03
 LinEq1:  Iter=  4 NonCon=     1 RMS=1.89D-04 Max=3.33D-03
 LinEq1:  Iter=  5 NonCon=     1 RMS=6.31D-05 Max=1.13D-03
 LinEq1:  Iter=  6 NonCon=     1 RMS=5.29D-05 Max=8.28D-04
 LinEq1:  Iter=  7 NonCon=     1 RMS=1.06D-05 Max=1.13D-04
 LinEq1:  Iter=  8 NonCon=     1 RMS=6.32D-06 Max=5.98D-05
 LinEq1:  Iter=  9 NonCon=     1 RMS=1.13D-06 Max=1.70D-05
 LinEq1:  Iter= 10 NonCon=     1 RMS=1.21D-07 Max=1.02D-06
 LinEq1:  Iter= 11 NonCon=     1 RMS=9.07D-09 Max=7.14D-08
 LinEq1:  Iter= 12 NonCon=     1 RMS=1.27D-09 Max=1.10D-08
 LinEq1:  Iter= 13 NonCon=     1 RMS=2.97D-10 Max=2.17D-09
 LinEq1:  Iter= 14 NonCon=     0 RMS=4.29D-11 Max=2.94D-10
 Linear equations converged to 1.000D-10 1.000D-09 after    14 iterations.
 End of Minotr Frequency-dependent properties file   721 does not exist.
 End of Minotr Frequency-dependent properties file   722 does not exist.

 **********************************************************************

            Population analysis using the CI density.

 **********************************************************************

 Alpha  occ. eigenvalues --  -10.19692 -10.19662 -10.18044 -10.18019  -0.79031
 Alpha  occ. eigenvalues --   -0.72826  -0.59463  -0.55716  -0.46395  -0.45690
 Alpha  occ. eigenvalues --   -0.39200  -0.38746  -0.34548  -0.30926  -0.22852
 Alpha virt. eigenvalues --   -0.01812   0.07033   0.12179   0.12860   0.13122
 Alpha virt. eigenvalues --    0.18054   0.18561   0.21242   0.31702   0.32337
 Alpha virt. eigenvalues --    0.37307   0.47084   0.52232   0.53507   0.58038
 Alpha virt. eigenvalues --    0.60505   0.61635   0.65452   0.66794   0.67301
 Alpha virt. eigenvalues --    0.68714   0.85827   0.86940   0.87660   0.89751
 Alpha virt. eigenvalues --    0.93387   0.94229   0.96933   1.06736   1.09364
 Alpha virt. eigenvalues --    1.13631   1.31494   1.35128   1.35913   1.43310
 Alpha virt. eigenvalues --    1.52671   1.65321   1.75271   1.75756   1.90277
 Alpha virt. eigenvalues --    1.96342   2.05665   2.10033   2.13256   2.16173
 Alpha virt. eigenvalues --    2.29118   2.38789   2.40643   2.40741   2.59243
 Alpha virt. eigenvalues --    2.70383   2.85616   2.91538   4.06091   4.13015
 Alpha virt. eigenvalues --    4.21420   4.42742
          Condensed to atoms (all electrons):
              1          2          3          4          5          6
     1  C    5.272420   0.373904   0.366347   0.397829  -0.054752  -0.040155
     2  H    0.373904   0.558019  -0.038109  -0.036531   0.005836  -0.011430
     3  H    0.366347  -0.038109   0.562977  -0.028165  -0.006703   0.004284
     4  C    0.397829  -0.036531  -0.028165   4.936989   0.368223   0.544285
     5  H   -0.054752   0.005836  -0.006703   0.368223   0.595159  -0.041248
     6  C   -0.040155  -0.011430   0.004284   0.544285  -0.041248   4.936549
     7  H   -0.004295   0.004762  -0.000012  -0.041344   0.003845   0.368294
     8  C    0.006173   0.000412  -0.000200  -0.040165  -0.004245   0.398316
     9  H    0.000403   0.000016  -0.000008  -0.011340   0.004692  -0.036523
    10  H   -0.000199  -0.000008   0.000003   0.004282  -0.000017  -0.027952
              7          8          9         10
     1  C   -0.004295   0.006173   0.000403  -0.000199
     2  H    0.004762   0.000412   0.000016  -0.000008
     3  H   -0.000012  -0.000200  -0.000008   0.000003
     4  C   -0.041344  -0.040165  -0.011340   0.004282
     5  H    0.003845  -0.004245   0.004692  -0.000017
     6  C    0.368294   0.398316  -0.036523  -0.027952
     7  H    0.595796  -0.055021   0.005880  -0.006832
     8  C   -0.055021   5.272033   0.373875   0.366379
     9  H    0.005880   0.373875   0.558108  -0.038203
    10  H   -0.006832   0.366379  -0.038203   0.562776
 Mulliken atomic charges:
              1
     1  C   -0.317677
     2  H    0.143127
     3  H    0.139585
     4  C   -0.094064
     5  H    0.129208
     6  C   -0.094421
     7  H    0.128928
     8  C   -0.317557
     9  H    0.143099
    10  H    0.139771
 Sum of Mulliken atomic charges =   0.00000
 Mulliken charges with hydrogens summed into heavy atoms:
              1
     1  C   -0.034965
     4  C    0.035144
     6  C    0.034507
     8  C   -0.034687
 Sum of Mulliken charges with hydrogens summed into heavy atoms =   0.00000
 Electronic spatial extent (au):  <R**2>=            340.2713
 Charge=              0.0000 electrons
 Dipole moment (field-independent basis, Debye):
    X=             -0.0033    Y=              0.0040    Z=              0.0000  Tot=              0.0051
 Quadrupole moment (field-independent basis, Debye-Ang):
   XX=            -23.5941   YY=            -22.7220   ZZ=            -27.6884
   XY=              0.9552   XZ=              0.0000   YZ=              0.0000
 Traceless Quadrupole moment (field-independent basis, Debye-Ang):
   XX=              1.0741   YY=              1.9461   ZZ=             -3.0202
   XY=              0.9552   XZ=              0.0000   YZ=              0.0000
 Octapole moment (field-independent basis, Debye-Ang**2):
  XXX=             -0.0291  YYY=              0.0142  ZZZ=              0.0000  XYY=             -0.0053
  XXY=              0.0059  XXZ=              0.0000  XZZ=             -0.0028  YZZ=              0.0030
  YYZ=              0.0000  XYZ=              0.0000
 Hexadecapole moment (field-independent basis, Debye-Ang**3):
 XXXX=           -161.5609 YYYY=           -247.7670 ZZZZ=            -28.4599 XXXY=             72.0073
 XXXZ=              0.0000 YYYX=             67.3525 YYYZ=              0.0000 ZZZX=              0.0000
 ZZZY=              0.0000 XXYY=            -74.0466 XXZZ=            -36.0438 YYZZ=            -54.2321
 XXYZ=              0.0000 YYXZ=              0.0000 ZZXY=             26.0922
 N-N= 1.024953978465D+02 E-N=-5.656093464408D+02  KE= 1.546912271082D+02
 Calling FoFJK, ICntrl=      5127 FMM=F ISym2X=0 I1Cent= 0 IOpClX= 0 NMat=1 NMatS=1 NMatT=0.
 -------------------------------------------------------------------
 Center     Atomic                   Forces (Hartrees/Bohr)
 Number     Number              X              Y              Z
 -------------------------------------------------------------------
      1        6           0.064191840   -0.045530992    0.000000000
      2        1           0.011587302    0.000979474    0.000000000
      3        1           0.006135304   -0.011329876    0.000000000
      4        6          -0.047997799    0.147181023    0.000000000
      5        1          -0.013672160   -0.000323634    0.000000000
      6        6           0.047609304   -0.146645564    0.000000000
      7        1           0.013951448    0.000032933    0.000000000
      8        6          -0.063876361    0.045441504    0.000000000
      9        1          -0.011953042   -0.001150648    0.000000000
     10        1          -0.005975837    0.011345780    0.000000000
 -------------------------------------------------------------------
 Cartesian Forces:  Max     0.147181023 RMS     0.045117601
 NDeriv=  30 NFrqRd=  0 LFDDif=       1
 NDeriv=  30 NFrqRd=  0 LFDDif=       1
 Re-enter D2Numr: IAtom=  2 IXYZ=2 IStep= 1.
 Standard basis: 6-31G(d) (6D, 7F)
 Integral buffers will be    131072 words long.
 Raffenetti 2 integral format.
 Two-electron integral symmetry is turned off.
    72 basis functions,   136 primitive gaussians,    72 cartesian basis functions
    15 alpha electrons       15 beta electrons
       nuclear repulsion energy       102.4973568208 Hartrees.
 NAtoms=   10 NActive=   10 NUniq=   10 SFac= 1.00D+00 NAtFMM=   60 NAOKFM=F Big=F
 One-electron integrals computed using PRISM.
 NBasis=    72 RedAO= T  NBF=    72
 NBsUse=    72 1.00D-06 NBFU=    72
 Initial guess read from the read-write file.
 B after Tr=     0.000000    0.000000    0.000000
         Rot=    1.000000    0.000000    0.000000    0.000000 Ang=   0.00 deg.
 Requested convergence on RMS density matrix=1.00D-08 within 128 cycles.
 Requested convergence on MAX density matrix=1.00D-06.
 Requested convergence on             energy=1.00D-06.
 No special actions if energy rises.
 Keep R1 ints in memory in canonical form, NReq=4464756.
 SCF Done:  E(RB3LYP) =  -155.984896115     A.U. after    8 cycles
             Convg  =    0.3748D-08             -V/T =  2.0106
 ExpMin= 1.61D-01 ExpMax= 3.05D+03 ExpMxC= 4.57D+02 IAcc=3 IRadAn=         5 AccDes= 0.00D+00
 HarFok:  IExCor=  205 AccDes= 0.00D+00 IRadAn=         5 IDoV=-2
 ScaDFX=  1.000000  1.000000  1.000000  1.000000
 Range of M.O.s used for correlation:     5    72
 NBasis=    72 NAE=    15 NBE=    15 NFC=     4 NFV=     0
 NROrb=     68 NOA=    11 NOB=    11 NVA=    57 NVB=    57
 Generating guess from densities on rwf.
 Convergence on wavefunction:    0.000001000000000
 Iteration     1 Dimension    12 NMult    12
 CISAX will form    12 AO SS matrices at one time.
