 Entering Gaussian System, Link 0=g09
 Input=buta13di.com
 Output=buta13di.log
 Initial command:
 /home/student/g09/l1.exe /home/student/singh/Gau-20041.inp -scrdir=/home/student/singh/
 Entering Link 1 = /home/student/g09/l1.exe PID=     20043.
  
 Copyright (c) 1988,1990,1992,1993,1995,1998,2003,2009,2011,
            Gaussian, Inc.  All Rights Reserved.
  
 This is part of the Gaussian(R) 09 program.  It is based on
 the Gaussian(R) 03 system (copyright 2003, Gaussian, Inc.),
 the Gaussian(R) 98 system (copyright 1998, Gaussian, Inc.),
 the Gaussian(R) 94 system (copyright 1995, Gaussian, Inc.),
 the Gaussian 92(TM) system (copyright 1992, Gaussian, Inc.),
 the Gaussian 90(TM) system (copyright 1990, Gaussian, Inc.),
 the Gaussian 88(TM) system (copyright 1988, Gaussian, Inc.),
 the Gaussian 86(TM) system (copyright 1986, Carnegie Mellon
 University), and the Gaussian 82(TM) system (copyright 1983,
 Carnegie Mellon University). Gaussian is a federally registered
 trademark of Gaussian, Inc.
  
 This software contains proprietary and confidential information,
 including trade secrets, belonging to Gaussian, Inc.
  
 This software is provided under written license and may be
 used, copied, transmitted, or stored only in accord with that
 written license.
  
 The following legend is applicable only to US Government
 contracts under FAR:
  
                    RESTRICTED RIGHTS LEGEND
  
 Use, reproduction and disclosure by the US Government is
 subject to restrictions as set forth in subparagraphs (a)
 and (c) of the Commercial Computer Software - Restricted
 Rights clause in FAR 52.227-19.
  
 Gaussian, Inc.
 340 Quinnipiac St., Bldg. 40, Wallingford CT 06492
  
  
 ---------------------------------------------------------------
 Warning -- This program may not be used in any manner that
 competes with the business of Gaussian, Inc. or will provide
 assistance to any competitor of Gaussian, Inc.  The licensee
 of this program is prohibited from giving any competitor of
 Gaussian, Inc. access to this program.  By using this program,
 the user acknowledges that Gaussian, Inc. is engaged in the
 business of creating and licensing software in the field of
 computational chemistry and represents and warrants to the
 licensee that it is not a competitor of Gaussian, Inc. and that
 it will not use this program in any manner prohibited above.
 ---------------------------------------------------------------
  

 Cite this work as:
 Gaussian 09, Revision C.01,
 M. J. Frisch, G. W. Trucks, H. B. Schlegel, G. E. Scuseria, 
 M. A. Robb, J. R. Cheeseman, G. Scalmani, V. Barone, B. Mennucci, 
 G. A. Petersson, H. Nakatsuji, M. Caricato, X. Li, H. P. Hratchian, 
 A. F. Izmaylov, J. Bloino, G. Zheng, J. L. Sonnenberg, M. Hada, 
 M. Ehara, K. Toyota, R. Fukuda, J. Hasegawa, M. Ishida, T. Nakajima, 
 Y. Honda, O. Kitao, H. Nakai, T. Vreven, J. A. Montgomery, Jr., 
 J. E. Peralta, F. Ogliaro, M. Bearpark, J. J. Heyd, E. Brothers, 
 K. N. Kudin, V. N. Staroverov, T. Keith, R. Kobayashi, J. Normand, 
 K. Raghavachari, A. Rendell, J. C. Burant, S. S. Iyengar, J. Tomasi, 
 M. Cossi, N. Rega, J. M. Millam, M. Klene, J. E. Knox, J. B. Cross, 
 V. Bakken, C. Adamo, J. Jaramillo, R. Gomperts, R. E. Stratmann, 
 O. Yazyev, A. J. Austin, R. Cammi, C. Pomelli, J. W. Ochterski, 
 R. L. Martin, K. Morokuma, V. G. Zakrzewski, G. A. Voth, 
 P. Salvador, J. J. Dannenberg, S. Dapprich, A. D. Daniels, 
 O. Farkas, J. B. Foresman, J. V. Ortiz, J. Cioslowski, 
 and D. J. Fox, Gaussian, Inc., Wallingford CT, 2010.
 
 ******************************************
 Gaussian 09:  EM64L-G09RevC.01 23-Sep-2011
                 2-Mar-2021 
 ******************************************
 %chk=buta13di.chk
 --------------------------------------------------------------
 # td=(50-50,nstates=3) opt freq B3LYP/6-31g* geom=connectivity
 --------------------------------------------------------------
 1/14=-1,18=20,19=15,26=3,38=1,57=2/1,3;
 2/9=110,12=2,17=6,18=5,40=1/2;
 3/5=1,6=6,7=1,11=2,16=1,25=1,30=1,71=1,74=-5/1,2,8,3;
 4//1;
 5/5=2,38=5/2;
 8/6=1,10=2,108=3/1;
 9/15=2,41=3,42=1,48=2/14;
 10/5=4/2;
 6/7=2,8=2,9=2,10=2/1;
 7/12=6,13=5/1,2,3,16;
 1/14=-1,18=20,19=15/3(2);
 2/9=110/2;
 99//99;
 2/9=110/2;
 3/5=1,6=6,7=1,11=2,16=1,25=1,30=1,71=1,74=-5/1,2,8,3;
 4/5=5,16=3/1;
 5/5=2,38=5/2;
 8/6=1,10=2,108=3/1;
 9/15=2,41=3,42=1,48=2,49=4/14;
 10/5=4/2;
 7/12=6,13=5/1,2,3,16;
 1/14=-1,18=20,19=15/3(-8);
 2/9=110/2;
 6/7=2,8=2,9=2,10=2/1;
 99//99;
 --------------
 buta 1,3 diene
 --------------
 Charge =  0 Multiplicity = 1
 Symbolic Z-Matrix:
 C                     3.07018   0.96491   0. 
 C                     0.90643  -0.35088   0. 
 C                    -1.25731   0.90643   0. 
 C                    -3.18713  -0.49708   0. 
 H                     1.54971  -1.43275   0. 
 H                    -0.05848  -1.34503   0. 
 H                    -0.52632   2.25146   0. 
 H                    -2.07602   2.60234   0. 
 H                    -3.59649  -1.72515   0. 
 H                    -5.31979  -0.73099   0.13252 
 H                    -4.1506    1.11111   0.1019 
 H                     4.12141   2.54386  -0.11471 
 H                     3.39067  -0.02924  -0.09557 
 H                     4.99831   0.61404  -0.13767 
 

 GradGradGradGradGradGradGradGradGradGradGradGradGradGradGradGradGradGrad
 Berny optimization.
 Initialization pass.
                           ----------------------------
                           !    Initial Parameters    !
                           ! (Angstroms and Degrees)  !
 --------------------------                            --------------------------
 ! Name  Definition              Value          Derivative Info.                !
 --------------------------------------------------------------------------------
 ! R1    R(1,2)                  2.5324         estimate D2E/DX2                !
 ! R2    R(1,12)                 1.9004         estimate D2E/DX2                !
 ! R3    R(1,13)                 1.0489         estimate D2E/DX2                !
 ! R4    R(1,14)                 1.9646         estimate D2E/DX2                !
 ! R5    R(2,3)                  2.5025         estimate D2E/DX2                !
 ! R6    R(2,5)                  1.2587         estimate D2E/DX2                !
 ! R7    R(2,6)                  1.3854         estimate D2E/DX2                !
 ! R8    R(3,4)                  2.3862         estimate D2E/DX2                !
 ! R9    R(3,7)                  1.5308         estimate D2E/DX2                !
 ! R10   R(3,8)                  1.8832         estimate D2E/DX2                !
 ! R11   R(4,9)                  1.2945         estimate D2E/DX2                !
 ! R12   R(4,10)                 2.1495         estimate D2E/DX2                !
 ! R13   R(4,11)                 1.8775         estimate D2E/DX2                !
 ! A1    A(2,1,12)             154.7365         estimate D2E/DX2                !
 ! A2    A(2,1,13)              76.6211         estimate D2E/DX2                !
 ! A3    A(2,1,14)             138.2239         estimate D2E/DX2                !
 ! A4    A(12,1,13)            127.8051         estimate D2E/DX2                !
 ! A5    A(12,1,14)             66.5004         estimate D2E/DX2                !
 ! A6    A(13,1,14)             61.6056         estimate D2E/DX2                !
 ! A7    A(1,2,3)              118.5358         estimate D2E/DX2                !
 ! A8    A(1,2,5)               90.5686         estimate D2E/DX2                !
 ! A9    A(3,2,5)              150.8955         estimate D2E/DX2                !
 ! A10   A(3,2,6)               76.0152         estimate D2E/DX2                !
 ! A11   A(5,2,6)               74.8804         estimate D2E/DX2                !
 ! A12   A(2,3,4)              113.8126         estimate D2E/DX2                !
 ! A13   A(2,3,7)               91.6369         estimate D2E/DX2                !
 ! A14   A(2,3,8)              145.9294         estimate D2E/DX2                !
 ! A15   A(4,3,7)              154.5505         estimate D2E/DX2                !
 ! A16   A(4,3,8)              100.258          estimate D2E/DX2                !
 ! A17   A(7,3,8)               54.2924         estimate D2E/DX2                !
 ! A18   A(3,4,9)              144.4623         estimate D2E/DX2                !
 ! A19   A(3,4,10)             150.042          estimate D2E/DX2                !
 ! A20   A(3,4,11)              84.9061         estimate D2E/DX2                !
 ! A21   A(9,4,10)              65.3558         estimate D2E/DX2                !
 ! A22   A(9,4,11)             130.5666         estimate D2E/DX2                !
 ! A23   A(10,4,11)             65.2112         estimate D2E/DX2                !
 ! A24   L(1,2,6,3,-1)         194.551          estimate D2E/DX2                !
 ! A25   L(1,2,6,3,-2)         180.0            estimate D2E/DX2                !
 ! D1    D(12,1,2,3)            -8.1309         estimate D2E/DX2                !
 ! D2    D(12,1,2,5)           171.8691         estimate D2E/DX2                !
 ! D3    D(13,1,2,3)          -174.6258         estimate D2E/DX2                !
 ! D4    D(13,1,2,5)             5.3742         estimate D2E/DX2                !
 ! D5    D(14,1,2,3)          -173.9623         estimate D2E/DX2                !
 ! D6    D(14,1,2,5)             6.0377         estimate D2E/DX2                !
 ! D7    D(1,2,3,4)            180.0            estimate D2E/DX2                !
 ! D8    D(1,2,3,7)              0.0            estimate D2E/DX2                !
 ! D9    D(1,2,3,8)              0.0            estimate D2E/DX2                !
 ! D10   D(5,2,3,4)              0.0            estimate D2E/DX2                !
 ! D11   D(5,2,3,7)            180.0            estimate D2E/DX2                !
 ! D12   D(5,2,3,8)            180.0            estimate D2E/DX2                !
 ! D13   D(6,2,3,4)              0.0            estimate D2E/DX2                !
 ! D14   D(6,2,3,7)            180.0            estimate D2E/DX2                !
 ! D15   D(6,2,3,8)            180.0            estimate D2E/DX2                !
 ! D16   D(2,3,4,9)              0.0            estimate D2E/DX2                !
 ! D17   D(2,3,4,10)           172.9084         estimate D2E/DX2                !
 ! D18   D(2,3,4,11)           176.8763         estimate D2E/DX2                !
 ! D19   D(7,3,4,9)            180.0            estimate D2E/DX2                !
 ! D20   D(7,3,4,10)            -7.0916         estimate D2E/DX2                !
 ! D21   D(7,3,4,11)            -3.1237         estimate D2E/DX2                !
 ! D22   D(8,3,4,9)            180.0            estimate D2E/DX2                !
 ! D23   D(8,3,4,10)            -7.0916         estimate D2E/DX2                !
 ! D24   D(8,3,4,11)            -3.1237         estimate D2E/DX2                !
 --------------------------------------------------------------------------------
 Trust Radius=3.00D-01 FncErr=1.00D-07 GrdErr=1.00D-06
 Number of steps in this run=     72 maximum allowed number of steps=    100.
 GradGradGradGradGradGradGradGradGradGradGradGradGradGradGradGradGradGrad

                          Input orientation:                          
 ---------------------------------------------------------------------
 Center     Atomic      Atomic             Coordinates (Angstroms)
 Number     Number       Type             X           Y           Z
 ---------------------------------------------------------------------
      1          6           0        3.070176    0.964912    0.000000
      2          6           0        0.906433   -0.350877    0.000000
      3          6           0       -1.257310    0.906433    0.000000
      4          6           0       -3.187135   -0.497076    0.000000
      5          1           0        1.549708   -1.432749    0.000000
      6          1           0       -0.058480   -1.345029    0.000000
      7          1           0       -0.526316    2.251462    0.000000
      8          1           0       -2.076023    2.602339    0.000000
      9          1           0       -3.596491   -1.725146    0.000000
     10          1           0       -5.319795   -0.730994    0.132518
     11          1           0       -4.150605    1.111111    0.101902
     12          1           0        4.121414    2.543860   -0.114708
     13          1           0        3.390670   -0.029240   -0.095573
     14          1           0        4.998306    0.614035   -0.137671
 ---------------------------------------------------------------------
                    Distance matrix (angstroms):
                    1          2          3          4          5
     1  C    0.000000
     2  C    2.532407   0.000000
     3  C    4.327881   2.502521   0.000000
     4  C    6.425834   4.096177   2.386223   0.000000
     5  H    2.839120   1.258669   3.653918   4.828370   0.000000
     6  H    3.888999   1.385422   2.550740   3.241529   1.610578
     7  H    3.819681   2.970680   1.530835   3.825496   4.228863
     8  H    5.400420   4.197205   1.883186   3.292559   5.424745
     9  H    7.188940   4.707966   3.520934   1.294500   5.154499
    10  H    8.560681   6.239227   4.382067   2.149539   6.906525
    11  H    7.222979   5.265114   2.902315   1.877478   6.243009
    12  H    1.900351   4.327674   5.623610   7.916775   4.737113
    13  H    1.048899   2.506795   4.742187   6.595113   2.316919
    14  H    1.964626   4.206357   6.263959   8.261656   4.012619
                    6          7          8          9         10
     6  H    0.000000
     7  H    3.626792   0.000000
     8  H    4.433080   1.588933   0.000000
     9  H    3.558373   5.023882   4.586824   0.000000
    10  H    5.298682   5.647127   4.653034   1.993909   0.000000
    11  H    4.773730   3.800823   2.556958   2.891674   2.182039
    12  H    5.710352   4.658331   6.198775   8.820637   9.996109
    13  H    3.692840   4.533598   6.067873   7.190665   8.741663
    14  H    5.424755   5.763815   7.349724   8.908494  10.408905
                   11         12         13         14
    11  H    0.000000
    12  H    8.397975   0.000000
    13  H    7.629562   2.674919   0.000000
    14  H    9.165536   2.119833   1.732071   0.000000
 Stoichiometry    C4H10
 Framework group  C1[X(C4H10)]
 Deg. of freedom    36
 Full point group                 C1      NOp   1
 Largest Abelian subgroup         C1      NOp   1
 Largest concise Abelian subgroup C1      NOp   1
                         Standard orientation:                         
 ---------------------------------------------------------------------
 Center     Atomic      Atomic             Coordinates (Angstroms)
 Number     Number       Type             X           Y           Z
 ---------------------------------------------------------------------
      1          6           0       -3.263281    0.225857   -0.037033
      2          6           0       -0.939799   -0.781112   -0.014053
      3          6           0        1.031178    0.760758    0.008301
      4          6           0        3.134977   -0.365148    0.028853
      5          1           0       -1.428761   -1.940906   -0.020527
      6          1           0        0.152159   -1.633706   -0.003706
      7          1           0        0.122851    1.992965    0.000319
      8          1           0        1.609794    2.552831    0.016463
      9          1           0        3.708694   -1.525561    0.033439
     10          1           0        5.280838   -0.304546   -0.081266
     11          1           0        3.870055    1.359985   -0.063344
     12          1           0       -4.522055    1.645769    0.066276
     13          1           0       -3.445536   -0.802941    0.055420
     14          1           0       -5.126491   -0.386014    0.080522
 ---------------------------------------------------------------------
 Rotational constants (GHZ):     12.2098409      1.2959029      1.1718365
 Standard basis: 6-31G(d) (6D, 7F)
 There are    80 symmetry adapted basis functions of A   symmetry.
 Integral buffers will be    131072 words long.
 Raffenetti 2 integral format.
 Two-electron integral symmetry is turned on.
    80 basis functions,   152 primitive gaussians,    80 cartesian basis functions
    17 alpha electrons       17 beta electrons
       nuclear repulsion energy        83.8018666520 Hartrees.
 NAtoms=   14 NActive=   14 NUniq=   14 SFac= 1.00D+00 NAtFMM=   60 NAOKFM=F Big=F
 One-electron integrals computed using PRISM.
 NBasis=    80 RedAO= T  NBF=    80
 NBsUse=    80 1.00D-06 NBFU=    80
 Harris functional with IExCor=  402 diagonalized for initial guess.
 ExpMin= 1.61D-01 ExpMax= 3.05D+03 ExpMxC= 4.57D+02 IAcc=1 IRadAn=         1 AccDes= 0.00D+00
 HarFok:  IExCor=  402 AccDes= 0.00D+00 IRadAn=         1 IDoV= 1
 ScaDFX=  1.000000  1.000000  1.000000  1.000000
 FoFCou: FMM=F IPFlag=           0 FMFlag=      100000 FMFlg1=           0
         NFxFlg=           0 DoJE=T BraDBF=F KetDBF=T FulRan=T
         Omega=  0.000000  0.000000  1.000000  0.000000  0.000000 ICntrl=     500 IOpCl=  0
         NMat0=    1 NMatS0=    1 NMatT0=    0 NMatD0=    1 NMtDS0=    0 NMtDT0=    0
         I1Cent=           4 NGrid=           0.
 Petite list used in FoFCou.
 Initial guess orbital symmetries:
       Occupied  (A) (A) (A) (A) (A) (A) (A) (A) (A) (A) (A) (A)
                 (A) (A) (A) (A) (A)
       Virtual   (A) (A) (A) (A) (A) (A) (A) (A) (A) (A) (A) (A)
                 (A) (A) (A) (A) (A) (A) (A) (A) (A) (A) (A) (A)
                 (A) (A) (A) (A) (A) (A) (A) (A) (A) (A) (A) (A)
                 (A) (A) (A) (A) (A) (A) (A) (A) (A) (A) (A) (A)
                 (A) (A) (A) (A) (A) (A) (A) (A) (A) (A) (A) (A)
                 (A) (A) (A)
 The electronic state of the initial guess is 1-A.
 Requested convergence on RMS density matrix=1.00D-08 within 128 cycles.
 Requested convergence on MAX density matrix=1.00D-06.
 Requested convergence on             energy=1.00D-06.
 No special actions if energy rises.
 Keep R1 ints in memory in canonical form, NReq=6309447.
 Integral accuracy reduced to 1.0D-05 until final iterations.
 EnCoef did     4 forward-backward iterations
 EnCoef did   100 forward-backward iterations
 EnCoef did     5 forward-backward iterations
 EnCoef did    10 forward-backward iterations
 EnCoef did     8 forward-backward iterations
 EnCoef did     4 forward-backward iterations
 EnCoef did     3 forward-backward iterations
 EnCoef did   100 forward-backward iterations
 Initial convergence to 1.0D-05 achieved.  Increase integral accuracy.
 SCF Done:  E(RB3LYP) =  -157.056254118     A.U. after   37 cycles
             Convg  =    0.8661D-08             -V/T =  2.0169
 ExpMin= 1.61D-01 ExpMax= 3.05D+03 ExpMxC= 4.57D+02 IAcc=3 IRadAn=         5 AccDes= 0.00D+00
 HarFok:  IExCor=  205 AccDes= 0.00D+00 IRadAn=         5 IDoV=-2
 ScaDFX=  1.000000  1.000000  1.000000  1.000000
 Range of M.O.s used for correlation:     5    80
 NBasis=    80 NAE=    17 NBE=    17 NFC=     4 NFV=     0
 NROrb=     76 NOA=    13 NOB=    13 NVA=    63 NVB=    63

 **** Warning!!: The smallest alpha delta epsilon is  0.26506723D-01

 Orbital symmetries:
       Occupied  (A) (A) (A) (A) (A) (A) (A) (A) (A) (A) (A) (A)
                 (A) (A) (A) (A) (A)
       Virtual   (A) (A) (A) (A) (A) (A) (A) (A) (A) (A) (A) (A)
                 (A) (A) (A) (A) (A) (A) (A) (A) (A) (A) (A) (A)
                 (A) (A) (A) (A) (A) (A) (A) (A) (A) (A) (A) (A)
                 (A) (A) (A) (A) (A) (A) (A) (A) (A) (A) (A) (A)
                 (A) (A) (A) (A) (A) (A) (A) (A) (A) (A) (A) (A)
                 (A) (A) (A)
    24 initial guesses have been made.
 Convergence on wavefunction:    0.000001000000000
 Iteration     1 Dimension    24 NMult    24
 CISAX will form    24 AO SS matrices at one time.
 New state      1 was old state      6
 New state      3 was old state      4
 New state      4 was old state      3
 No map to state      6
 Iteration     2 Dimension    36 NMult    36
 Renormalizing I=  4 Err= 4.62D-01
 Renormalizing I=  5 Err= 2.64D+00
 Renormalizing I=  6 Err= 1.21D+00
 Iteration     3 Dimension    48 NMult    48
 Renormalizing I=  4 Err= 3.84D-01
 Renormalizing I=  5 Err= 7.01D+00
 Renormalizing I=  6 Err= 3.37D+00
 Iteration     4 Dimension    60 NMult    60
 Renormalizing I=  4 Err= 5.92D-01
 Renormalizing I=  5 Err= 1.14D+00
 Renormalizing I=  6 Err= 3.38D+00
 New state      1 was old state      3
 New state      2 was old state      1
 New state      3 was old state      2
 Iteration     5 Dimension    72 NMult    72
 Renormalizing I=  4 Err= 8.04D-01
 Renormalizing I=  5 Err= 6.93D-01
 Renormalizing I=  6 Err= 1.63D+00
 New state      2 was old state      3
 New state      3 was old state      2
 Iteration     6 Dimension    84 NMult    84
 Renormalizing I=  4 Err= 8.06D-01
 Renormalizing I=  5 Err= 6.67D-01
 Renormalizing I=  6 Err= 1.52D+00
 Iteration     7 Dimension    96 NMult    96
 Renormalizing I=  4 Err= 8.06D-01
 Renormalizing I=  5 Err= 6.64D-01
 Renormalizing I=  6 Err= 1.46D+00
 Iteration     8 Dimension   108 NMult   108
 Renormalizing I=  4 Err= 8.06D-01
 Renormalizing I=  5 Err= 6.52D-01
 Renormalizing I=  6 Err= 1.42D+00
 Iteration     9 Dimension   120 NMult   120
 Renormalizing I=  4 Err= 8.06D-01
 Renormalizing I=  5 Err= 6.47D-01
 Renormalizing I=  6 Err= 1.41D+00
 Iteration    10 Dimension   132 NMult   132
 Renormalizing I=  4 Err= 8.06D-01
 Renormalizing I=  5 Err= 6.43D-01
 Renormalizing I=  6 Err= 1.40D+00
 Iteration    11 Dimension   144 NMult   144
 Renormalizing I=  4 Err= 8.06D-01
 Renormalizing I=  5 Err= 6.42D-01
 Renormalizing I=  6 Err= 1.40D+00
 Iteration    12 Dimension   156 NMult   156
 Renormalizing I=  4 Err= 8.06D-01
 Renormalizing I=  5 Err= 6.42D-01
 Renormalizing I=  6 Err= 1.39D+00
 Iteration    13 Dimension   168 NMult   168
 Renormalizing I=  4 Err= 8.06D-01
 Renormalizing I=  5 Err= 6.41D-01
 Renormalizing I=  6 Err= 1.39D+00
 Iteration    14 Dimension   180 NMult   180
 Renormalizing I=  4 Err= 8.06D-01
 Renormalizing I=  5 Err= 6.39D-01
 Renormalizing I=  6 Err= 1.39D+00
 Iteration    15 Dimension   192 NMult   192
 Renormalizing I=  4 Err= 8.06D-01
 Renormalizing I=  5 Err= 6.37D-01
 Renormalizing I=  6 Err= 1.38D+00
 Davidson failed to converge within maximum sub-space dimensions.
  Restart with updated initial guess:
 Iteration     1 Dimension    24 NMult   216
 Renormalizing I=  4 Err= 3.73D-01
 Renormalizing I=  5 Err= 2.99D+00
 Renormalizing I=  6 Err= 3.38D+00
 Iteration     2 Dimension    36 NMult   228
 Renormalizing I=  4 Err= 7.80D-01
 Renormalizing I=  5 Err= 1.40D+00
 Renormalizing I=  6 Err= 3.38D+00
 Iteration     3 Dimension    48 NMult   240
 Renormalizing I=  4 Err= 7.95D-01
 Renormalizing I=  5 Err= 1.11D+00
 Renormalizing I=  6 Err= 3.22D+00
 Iteration     4 Dimension    60 NMult   252
 Renormalizing I=  4 Err= 8.05D-01
 Renormalizing I=  5 Err= 8.41D-01
 Renormalizing I=  6 Err= 1.57D+00
 Iteration     5 Dimension    72 NMult   264
 Renormalizing I=  4 Err= 8.04D-01
 Renormalizing I=  5 Err= 7.60D-01
 Renormalizing I=  6 Err= 1.53D+00
 Iteration     6 Dimension    84 NMult   276
 Renormalizing I=  4 Err= 8.04D-01
 Renormalizing I=  5 Err= 7.42D-01
 Renormalizing I=  6 Err= 1.49D+00
 Iteration     7 Dimension    96 NMult   288
 Renormalizing I=  4 Err= 8.06D-01
 Renormalizing I=  5 Err= 7.05D-01
 Renormalizing I=  6 Err= 1.44D+00
 Iteration     8 Dimension   108 NMult   300
 Renormalizing I=  4 Err= 8.06D-01
 Renormalizing I=  5 Err= 6.96D-01
 Renormalizing I=  6 Err= 1.42D+00
 Iteration     9 Dimension   120 NMult   312
 Renormalizing I=  4 Err= 8.06D-01
 Renormalizing I=  5 Err= 6.70D-01
 Renormalizing I=  6 Err= 1.41D+00
 Iteration    10 Dimension   132 NMult   324
 Renormalizing I=  4 Err= 8.06D-01
 Renormalizing I=  5 Err= 6.69D-01
 Renormalizing I=  6 Err= 1.40D+00
 Iteration    11 Dimension   144 NMult   336
 Renormalizing I=  4 Err= 8.06D-01
 Renormalizing I=  5 Err= 6.65D-01
 Renormalizing I=  6 Err= 1.40D+00
 Iteration    12 Dimension   156 NMult   348
 Renormalizing I=  4 Err= 8.06D-01
 Renormalizing I=  5 Err= 6.62D-01
 Renormalizing I=  6 Err= 1.40D+00
 Iteration    13 Dimension   168 NMult   360
 Renormalizing I=  4 Err= 8.06D-01
 Renormalizing I=  5 Err= 6.48D-01
 Renormalizing I=  6 Err= 1.38D+00
 Iteration    14 Dimension   180 NMult   372
 Renormalizing I=  4 Err= 8.06D-01
 Renormalizing I=  5 Err= 6.45D-01
 Renormalizing I=  6 Err= 1.38D+00
 Iteration    15 Dimension   190 NMult   382
 Renormalizing I=  4 Err= 8.06D-01
 Renormalizing I=  5 Err= 6.45D-01
 Renormalizing I=  6 Err= 1.37D+00
 Iteration    16 Dimension   198 NMult   390
 Renormalizing I=  4 Err= 8.06D-01
 Renormalizing I=  5 Err= 6.45D-01
 Renormalizing I=  6 Err= 1.37D+00
 Davidson failed to converge within maximum sub-space dimensions.
  Restart with updated initial guess:
 Iteration     1 Dimension    20 NMult   410
 Renormalizing I=  4 Err= 1.51D-01
 Renormalizing I=  5 Err= 2.73D+00
 Renormalizing I=  6 Err= 1.04D+00
 Iteration     2 Dimension    32 NMult   422
 Renormalizing I=  4 Err= 7.97D-01
 Renormalizing I=  5 Err= 1.51D+00
 Renormalizing I=  6 Err= 3.38D+00
 Iteration     3 Dimension    44 NMult   434
 Renormalizing I=  4 Err= 7.96D-01
 Renormalizing I=  5 Err= 1.22D+00
 Renormalizing I=  6 Err= 3.38D+00
 Iteration     4 Dimension    56 NMult   446
 Renormalizing I=  4 Err= 8.01D-01
 Renormalizing I=  5 Err= 9.18D-01
 Renormalizing I=  6 Err= 1.71D+00
 Iteration     5 Dimension    68 NMult   458
 Renormalizing I=  4 Err= 8.03D-01
 Renormalizing I=  5 Err= 8.37D-01
 Renormalizing I=  6 Err= 1.51D+00
 Iteration     6 Dimension    80 NMult   470
 Renormalizing I=  4 Err= 8.03D-01
 Renormalizing I=  5 Err= 8.12D-01
 Renormalizing I=  6 Err= 1.46D+00
 Iteration     7 Dimension    92 NMult   482
 Renormalizing I=  4 Err= 8.05D-01
 Renormalizing I=  5 Err= 7.60D-01
 Renormalizing I=  6 Err= 1.42D+00
 Iteration     8 Dimension   104 NMult   494
 Renormalizing I=  4 Err= 8.05D-01
 Renormalizing I=  5 Err= 7.46D-01
 Renormalizing I=  6 Err= 1.40D+00
 Iteration     9 Dimension   116 NMult   506
 Renormalizing I=  4 Err= 8.05D-01
 Renormalizing I=  5 Err= 7.28D-01
 Renormalizing I=  6 Err= 1.39D+00
 Iteration    10 Dimension   128 NMult   518
 Renormalizing I=  4 Err= 8.06D-01
 Renormalizing I=  5 Err= 6.75D-01
 Renormalizing I=  6 Err= 1.37D+00
 Iteration    11 Dimension   140 NMult   530
 Renormalizing I=  4 Err= 8.05D-01
 Renormalizing I=  5 Err= 6.66D-01
 Renormalizing I=  6 Err= 1.36D+00
 Iteration    12 Dimension   152 NMult   542
 Renormalizing I=  4 Err= 8.06D-01
 Renormalizing I=  5 Err= 6.61D-01
 Renormalizing I=  6 Err= 1.36D+00
 Iteration    13 Dimension   164 NMult   554
 Renormalizing I=  4 Err= 8.06D-01
 Renormalizing I=  5 Err= 6.54D-01
 Renormalizing I=  6 Err= 1.36D+00
 Iteration    14 Dimension   176 NMult   566
 Renormalizing I=  4 Err= 8.06D-01
 Renormalizing I=  5 Err= 6.52D-01
 Renormalizing I=  6 Err= 1.35D+00
 Iteration    15 Dimension   188 NMult   578
 Renormalizing I=  4 Err= 8.06D-01
 Renormalizing I=  5 Err= 6.48D-01
 Renormalizing I=  6 Err= 1.35D+00
 Iteration    16 Dimension   196 NMult   586
 Renormalizing I=  4 Err= 8.06D-01
 Renormalizing I=  5 Err= 6.49D-01
 Renormalizing I=  6 Err= 1.35D+00
 Davidson failed to converge within maximum sub-space dimensions.
  Restart with updated initial guess:
 Iteration     1 Dimension    22 NMult   608
 Renormalizing I=  4 Err= 4.30D-02
 Renormalizing I=  5 Err= 2.73D+00
 Renormalizing I=  6 Err= 1.39D+00
 Iteration     2 Dimension    34 NMult   620
 Renormalizing I=  4 Err= 7.82D-01
 Renormalizing I=  5 Err= 1.51D+00
 Renormalizing I=  6 Err= 3.38D+00
 Iteration     3 Dimension    46 NMult   632
 Renormalizing I=  4 Err= 7.98D-01
 Renormalizing I=  5 Err= 1.11D+00
 Renormalizing I=  6 Err= 3.38D+00
 Iteration     4 Dimension    58 NMult   644
 Renormalizing I=  4 Err= 8.02D-01
 Renormalizing I=  5 Err= 1.00D+00
 Renormalizing I=  6 Err= 2.45D+00
 Iteration     5 Dimension    70 NMult   656
 Renormalizing I=  4 Err= 8.04D-01
 Renormalizing I=  5 Err= 9.09D-01
 Renormalizing I=  6 Err= 1.82D+00
 Iteration     6 Dimension    82 NMult   668
 Renormalizing I=  4 Err= 8.06D-01
 Renormalizing I=  5 Err= 7.34D-01
 Renormalizing I=  6 Err= 1.45D+00
 Iteration     7 Dimension    94 NMult   680
 Renormalizing I=  4 Err= 8.06D-01
 Renormalizing I=  5 Err= 6.56D-01
 Renormalizing I=  6 Err= 1.41D+00
 Iteration     8 Dimension   106 NMult   692
 Renormalizing I=  4 Err= 8.06D-01
 Renormalizing I=  5 Err= 6.52D-01
 Renormalizing I=  6 Err= 1.39D+00
 Iteration     9 Dimension   118 NMult   704
 Renormalizing I=  4 Err= 8.06D-01
 Renormalizing I=  5 Err= 6.50D-01
 Renormalizing I=  6 Err= 1.38D+00
 Iteration    10 Dimension   130 NMult   716
 Renormalizing I=  4 Err= 8.06D-01
 Renormalizing I=  5 Err= 6.48D-01
 Renormalizing I=  6 Err= 1.38D+00
 Iteration    11 Dimension   142 NMult   728
 Renormalizing I=  4 Err= 8.06D-01
 Renormalizing I=  5 Err= 6.44D-01
 Renormalizing I=  6 Err= 1.37D+00
 Iteration    12 Dimension   154 NMult   740
 Renormalizing I=  4 Err= 8.06D-01
 Renormalizing I=  5 Err= 6.44D-01
 Renormalizing I=  6 Err= 1.37D+00
 Iteration    13 Dimension   166 NMult   752
 Renormalizing I=  4 Err= 8.06D-01
 Renormalizing I=  5 Err= 6.43D-01
 Renormalizing I=  6 Err= 1.37D+00
 Iteration    14 Dimension   173 NMult   759
 Renormalizing I=  4 Err= 8.06D-01
 Renormalizing I=  5 Err= 6.42D-01
 Renormalizing I=  6 Err= 1.37D+00
 Iteration    15 Dimension   184 NMult   770
 Renormalizing I=  4 Err= 8.06D-01
 Renormalizing I=  5 Err= 6.43D-01
 Renormalizing I=  6 Err= 1.36D+00
 Iteration    16 Dimension   193 NMult   779
 Renormalizing I=  4 Err= 8.06D-01
 Renormalizing I=  5 Err= 6.41D-01
 Renormalizing I=  6 Err= 1.36D+00
 Davidson failed to converge within maximum sub-space dimensions.
  Restart with updated initial guess:
 Iteration     1 Dimension    22 NMult   801
 Renormalizing I=  4 Err= 1.40D-01
 Renormalizing I=  5 Err= 3.27D+00
 Renormalizing I=  6 Err= 3.38D+00
 Iteration     2 Dimension    34 NMult   813
 Renormalizing I=  4 Err= 7.86D-01
 Renormalizing I=  5 Err= 1.49D+00
 Renormalizing I=  6 Err= 3.38D+00
 Iteration     3 Dimension    46 NMult   825
 Renormalizing I=  4 Err= 7.99D-01
 Renormalizing I=  5 Err= 1.16D+00
 Renormalizing I=  6 Err= 3.38D+00
 Iteration     4 Dimension    58 NMult   837
 Renormalizing I=  4 Err= 8.05D-01
 Renormalizing I=  5 Err= 9.14D-01
 Renormalizing I=  6 Err= 1.50D+00
 Iteration     5 Dimension    70 NMult   849
 Renormalizing I=  4 Err= 8.05D-01
 Renormalizing I=  5 Err= 7.94D-01
 Renormalizing I=  6 Err= 1.44D+00
 Iteration     6 Dimension    82 NMult   861
 Renormalizing I=  4 Err= 8.06D-01
 Renormalizing I=  5 Err= 7.05D-01
 Renormalizing I=  6 Err= 1.40D+00
 Iteration     7 Dimension    94 NMult   873
 Renormalizing I=  4 Err= 8.06D-01
 Renormalizing I=  5 Err= 7.00D-01
 Renormalizing I=  6 Err= 1.39D+00
 Iteration     8 Dimension   106 NMult   885
 Renormalizing I=  4 Err= 8.06D-01
 Renormalizing I=  5 Err= 6.73D-01
 Renormalizing I=  6 Err= 1.38D+00
 Iteration     9 Dimension   117 NMult   896
 Renormalizing I=  4 Err= 8.06D-01
 Renormalizing I=  5 Err= 6.67D-01
 Renormalizing I=  6 Err= 1.37D+00
 Iteration    10 Dimension   129 NMult   908
 Renormalizing I=  4 Err= 8.06D-01
 Renormalizing I=  5 Err= 6.45D-01
 Renormalizing I=  6 Err= 1.37D+00
 Iteration    11 Dimension   140 NMult   919
 Renormalizing I=  4 Err= 8.06D-01
 Renormalizing I=  5 Err= 6.40D-01
 Renormalizing I=  6 Err= 1.37D+00
 Iteration    12 Dimension   152 NMult   931
 Renormalizing I=  4 Err= 8.06D-01
 Renormalizing I=  5 Err= 6.39D-01
 Renormalizing I=  6 Err= 1.37D+00
 Iteration    13 Dimension   164 NMult   943
 Renormalizing I=  4 Err= 8.06D-01
 Renormalizing I=  5 Err= 6.36D-01
 Renormalizing I=  6 Err= 1.36D+00
 Iteration    14 Dimension   175 NMult   954
 Renormalizing I=  4 Err= 8.06D-01
 Renormalizing I=  5 Err= 6.34D-01
 Renormalizing I=  6 Err= 1.36D+00
 Iteration    15 Dimension   185 NMult   964
 Renormalizing I=  4 Err= 8.06D-01
 Renormalizing I=  5 Err= 6.28D-01
 Renormalizing I=  6 Err= 1.36D+00
 Iteration    16 Dimension   195 NMult   974
 Renormalizing I=  4 Err= 8.06D-01
 Renormalizing I=  5 Err= 6.28D-01
 Renormalizing I=  6 Err= 1.36D+00
 Davidson failed to converge within maximum sub-space dimensions.
  Restart with updated initial guess:
 Iteration     1 Dimension    24 NMult   998
 Renormalizing I=  4 Err= 3.73D-01
 Renormalizing I=  5 Err= 3.01D+00
 Renormalizing I=  6 Err= 3.38D+00
 Iteration     2 Dimension    36 NMult  1010
 Renormalizing I=  4 Err= 7.80D-01
 Renormalizing I=  5 Err= 1.40D+00
 Renormalizing I=  6 Err= 3.38D+00
 Iteration     3 Dimension    48 NMult  1022
 Renormalizing I=  4 Err= 7.95D-01
 Renormalizing I=  5 Err= 1.10D+00
 Renormalizing I=  6 Err= 2.87D+00
 Iteration     4 Dimension    60 NMult  1034
 Renormalizing I=  4 Err= 8.02D-01
 Renormalizing I=  5 Err= 8.35D-01
 Renormalizing I=  6 Err= 1.55D+00
 Iteration     5 Dimension    72 NMult  1046
 Renormalizing I=  4 Err= 8.02D-01
 Renormalizing I=  5 Err= 7.68D-01
 Renormalizing I=  6 Err= 1.51D+00
 Iteration     6 Dimension    84 NMult  1058
 Renormalizing I=  4 Err= 8.04D-01
 Renormalizing I=  5 Err= 7.54D-01
 Renormalizing I=  6 Err= 1.48D+00
 Iteration     7 Dimension    96 NMult  1070
 Renormalizing I=  4 Err= 8.05D-01
 Renormalizing I=  5 Err= 6.97D-01
 Renormalizing I=  6 Err= 1.41D+00
 Iteration     8 Dimension   108 NMult  1082
 Renormalizing I=  4 Err= 8.05D-01
 Renormalizing I=  5 Err= 6.93D-01
 Renormalizing I=  6 Err= 1.40D+00
 Iteration     9 Dimension   120 NMult  1094
 Renormalizing I=  4 Err= 8.06D-01
 Renormalizing I=  5 Err= 6.89D-01
 Renormalizing I=  6 Err= 1.39D+00
 Iteration    10 Dimension   132 NMult  1106
 Renormalizing I=  4 Err= 8.06D-01
 Renormalizing I=  5 Err= 6.69D-01
 Renormalizing I=  6 Err= 1.38D+00
 Iteration    11 Dimension   143 NMult  1117
 Renormalizing I=  4 Err= 8.06D-01
 Renormalizing I=  5 Err= 6.66D-01
 Renormalizing I=  6 Err= 1.37D+00
 Iteration    12 Dimension   153 NMult  1127
 Renormalizing I=  4 Err= 8.06D-01
 Renormalizing I=  5 Err= 6.61D-01
 Renormalizing I=  6 Err= 1.37D+00
 Iteration    13 Dimension   163 NMult  1137
 Renormalizing I=  4 Err= 8.06D-01
 Renormalizing I=  5 Err= 6.59D-01
 Renormalizing I=  6 Err= 1.37D+00
 Iteration    14 Dimension   174 NMult  1148
 Renormalizing I=  4 Err= 8.06D-01
 Renormalizing I=  5 Err= 6.56D-01
 Renormalizing I=  6 Err= 1.37D+00
 Iteration    15 Dimension   184 NMult  1158
 Renormalizing I=  4 Err= 8.06D-01
 Renormalizing I=  5 Err= 6.51D-01
 Renormalizing I=  6 Err= 1.37D+00
 Iteration    16 Dimension   195 NMult  1169
 Renormalizing I=  4 Err= 8.06D-01
 Renormalizing I=  5 Err= 6.45D-01
 Renormalizing I=  6 Err= 1.36D+00
 Davidson failed to converge within maximum sub-space dimensions.
  Restart with updated initial guess:
 Iteration     1 Dimension    24 NMult  1193
 Renormalizing I=  4 Err= 4.20D-01
 Renormalizing I=  5 Err= 2.90D+00
 Renormalizing I=  6 Err= 3.38D+00
 Iteration     2 Dimension    36 NMult  1205
 Renormalizing I=  4 Err= 7.80D-01
 Renormalizing I=  5 Err= 1.40D+00
 Renormalizing I=  6 Err= 3.38D+00
 Iteration     3 Dimension    48 NMult  1217
 Renormalizing I=  4 Err= 7.95D-01
 Renormalizing I=  5 Err= 1.11D+00
 Renormalizing I=  6 Err= 2.95D+00
 Iteration     4 Dimension    60 NMult  1229
 Renormalizing I=  4 Err= 8.02D-01
 Renormalizing I=  5 Err= 8.53D-01
 Renormalizing I=  6 Err= 1.56D+00
 Iteration     5 Dimension    72 NMult  1241
 Renormalizing I=  4 Err= 8.02D-01
 Renormalizing I=  5 Err= 7.79D-01
 Renormalizing I=  6 Err= 1.51D+00
 Iteration     6 Dimension    84 NMult  1253
 Renormalizing I=  4 Err= 8.04D-01
 Renormalizing I=  5 Err= 7.65D-01
 Renormalizing I=  6 Err= 1.47D+00
 Iteration     7 Dimension    96 NMult  1265
 Renormalizing I=  4 Err= 8.05D-01
 Renormalizing I=  5 Err= 7.19D-01
 Renormalizing I=  6 Err= 1.43D+00
 Iteration     8 Dimension   108 NMult  1277
 Renormalizing I=  4 Err= 8.05D-01
 Renormalizing I=  5 Err= 7.05D-01
 Renormalizing I=  6 Err= 1.41D+00
 Iteration     9 Dimension   119 NMult  1288
 Renormalizing I=  4 Err= 8.05D-01
 Renormalizing I=  5 Err= 6.62D-01
 Renormalizing I=  6 Err= 1.38D+00
 Iteration    10 Dimension   131 NMult  1300
 Renormalizing I=  4 Err= 8.06D-01
 Renormalizing I=  5 Err= 6.63D-01
 Renormalizing I=  6 Err= 1.37D+00
 Iteration    11 Dimension   142 NMult  1311
 Renormalizing I=  4 Err= 8.06D-01
 Renormalizing I=  5 Err= 6.57D-01
 Renormalizing I=  6 Err= 1.37D+00
 Iteration    12 Dimension   153 NMult  1322
 Renormalizing I=  4 Err= 8.06D-01
 Renormalizing I=  5 Err= 6.57D-01
 Renormalizing I=  6 Err= 1.37D+00
 Iteration    13 Dimension   163 NMult  1332
 Renormalizing I=  4 Err= 8.06D-01
 Renormalizing I=  5 Err= 6.56D-01
 Renormalizing I=  6 Err= 1.37D+00
 Iteration    14 Dimension   172 NMult  1341
 Renormalizing I=  4 Err= 8.06D-01
 Renormalizing I=  5 Err= 6.52D-01
 Renormalizing I=  6 Err= 1.37D+00
 Iteration    15 Dimension   183 NMult  1352
 Renormalizing I=  4 Err= 8.06D-01
 Renormalizing I=  5 Err= 6.50D-01
 Renormalizing I=  6 Err= 1.37D+00
 Iteration    16 Dimension   191 NMult  1360
 Renormalizing I=  4 Err= 8.06D-01
 Renormalizing I=  5 Err= 6.49D-01
 Renormalizing I=  6 Err= 1.37D+00
 Iteration    17 Dimension   197 NMult  1366
 Renormalizing I=  4 Err= 8.06D-01
 Renormalizing I=  5 Err= 6.48D-01
 Renormalizing I=  6 Err= 1.37D+00
 Davidson failed to converge within maximum sub-space dimensions.
  Restart with updated initial guess:
 Iteration     1 Dimension    20 NMult  1386
 Renormalizing I=  4 Err= 1.51D-01
 Renormalizing I=  5 Err= 2.73D+00
 Renormalizing I=  6 Err= 1.03D+00
 Iteration     2 Dimension    32 NMult  1398
 Renormalizing I=  4 Err= 7.97D-01
 Renormalizing I=  5 Err= 1.51D+00
 Renormalizing I=  6 Err= 3.38D+00
 Iteration     3 Dimension    44 NMult  1410
 Renormalizing I=  4 Err= 7.96D-01
 Renormalizing I=  5 Err= 1.22D+00
 Renormalizing I=  6 Err= 3.38D+00
 Iteration     4 Dimension    56 NMult  1422
 Renormalizing I=  4 Err= 8.01D-01
 Renormalizing I=  5 Err= 9.05D-01
 Renormalizing I=  6 Err= 1.67D+00
 Iteration     5 Dimension    68 NMult  1434
 Renormalizing I=  4 Err= 8.03D-01
 Renormalizing I=  5 Err= 8.28D-01
 Renormalizing I=  6 Err= 1.51D+00
 Iteration     6 Dimension    80 NMult  1446
 Renormalizing I=  4 Err= 8.03D-01
 Renormalizing I=  5 Err= 8.07D-01
 Renormalizing I=  6 Err= 1.46D+00
 Iteration     7 Dimension    92 NMult  1458
 Renormalizing I=  4 Err= 8.05D-01
 Renormalizing I=  5 Err= 7.62D-01
 Renormalizing I=  6 Err= 1.42D+00
 Iteration     8 Dimension   104 NMult  1470
 Renormalizing I=  4 Err= 8.06D-01
 Renormalizing I=  5 Err= 7.34D-01
 Renormalizing I=  6 Err= 1.39D+00
 Iteration     9 Dimension   116 NMult  1482
 Renormalizing I=  4 Err= 8.06D-01
 Renormalizing I=  5 Err= 6.86D-01
 Renormalizing I=  6 Err= 1.37D+00
 Iteration    10 Dimension   128 NMult  1494
 Renormalizing I=  4 Err= 8.06D-01
 Renormalizing I=  5 Err= 6.73D-01
 Renormalizing I=  6 Err= 1.36D+00
 Iteration    11 Dimension   139 NMult  1505
 Renormalizing I=  4 Err= 8.06D-01
 Renormalizing I=  5 Err= 6.64D-01
 Renormalizing I=  6 Err= 1.36D+00
 Iteration    12 Dimension   150 NMult  1516
 Renormalizing I=  4 Err= 8.06D-01
 Renormalizing I=  5 Err= 6.62D-01
 Renormalizing I=  6 Err= 1.36D+00
 Iteration    13 Dimension   161 NMult  1527
 Renormalizing I=  4 Err= 8.06D-01
 Renormalizing I=  5 Err= 6.59D-01
 Renormalizing I=  6 Err= 1.36D+00
 Iteration    14 Dimension   172 NMult  1538
 Renormalizing I=  4 Err= 8.06D-01
 Renormalizing I=  5 Err= 6.58D-01
 Renormalizing I=  6 Err= 1.36D+00
 Iteration    15 Dimension   183 NMult  1549
 Renormalizing I=  4 Err= 8.06D-01
 Renormalizing I=  5 Err= 6.54D-01
 Renormalizing I=  6 Err= 1.36D+00
 Iteration    16 Dimension   189 NMult  1555
 Renormalizing I=  4 Err= 8.06D-01
 Renormalizing I=  5 Err= 6.47D-01
 Renormalizing I=  6 Err= 1.36D+00
 Iteration    17 Dimension   199 NMult  1565
 Renormalizing I=  4 Err= 8.06D-01
 Renormalizing I=  5 Err= 6.44D-01
 Renormalizing I=  6 Err= 1.36D+00
 Davidson failed to converge within maximum sub-space dimensions.
  Restart with updated initial guess:
 Iteration     1 Dimension    23 NMult  1588
 Renormalizing I=  4 Err= 3.88D-01
 Renormalizing I=  5 Err= 2.98D+00
 Renormalizing I=  6 Err= 3.38D+00
 Iteration     2 Dimension    35 NMult  1600
 Renormalizing I=  4 Err= 7.80D-01
 Renormalizing I=  5 Err= 1.40D+00
 Renormalizing I=  6 Err= 3.38D+00
 Iteration     3 Dimension    47 NMult  1612
 Renormalizing I=  4 Err= 7.95D-01
 Renormalizing I=  5 Err= 1.10D+00
 Renormalizing I=  6 Err= 2.88D+00
 Iteration     4 Dimension    59 NMult  1624
 Renormalizing I=  4 Err= 8.02D-01
 Renormalizing I=  5 Err= 8.46D-01
 Renormalizing I=  6 Err= 1.56D+00
 Iteration     5 Dimension    71 NMult  1636
 Renormalizing I=  4 Err= 8.02D-01
 Renormalizing I=  5 Err= 7.68D-01
 Renormalizing I=  6 Err= 1.51D+00
 Iteration     6 Dimension    83 NMult  1648
 Renormalizing I=  4 Err= 8.04D-01
 Renormalizing I=  5 Err= 7.54D-01
 Renormalizing I=  6 Err= 1.47D+00
 Iteration     7 Dimension    95 NMult  1660
 Renormalizing I=  4 Err= 8.06D-01
 Renormalizing I=  5 Err= 7.04D-01
 Renormalizing I=  6 Err= 1.41D+00
 Iteration     8 Dimension   106 NMult  1671
 Renormalizing I=  4 Err= 8.06D-01
 Renormalizing I=  5 Err= 7.01D-01
 Renormalizing I=  6 Err= 1.39D+00
 Iteration     9 Dimension   117 NMult  1682
 Renormalizing I=  4 Err= 8.06D-01
 Renormalizing I=  5 Err= 6.80D-01
 Renormalizing I=  6 Err= 1.38D+00
 Iteration    10 Dimension   128 NMult  1693
 Renormalizing I=  4 Err= 8.06D-01
 Renormalizing I=  5 Err= 6.57D-01
 Renormalizing I=  6 Err= 1.37D+00
 Iteration    11 Dimension   139 NMult  1704
 Renormalizing I=  4 Err= 8.06D-01
 Renormalizing I=  5 Err= 6.56D-01
 Renormalizing I=  6 Err= 1.37D+00
 Iteration    12 Dimension   150 NMult  1715
 Renormalizing I=  4 Err= 8.06D-01
 Renormalizing I=  5 Err= 6.54D-01
 Renormalizing I=  6 Err= 1.37D+00
 Iteration    13 Dimension   161 NMult  1726
 Renormalizing I=  4 Err= 8.06D-01
 Renormalizing I=  5 Err= 6.49D-01
 Renormalizing I=  6 Err= 1.36D+00
 Iteration    14 Dimension   171 NMult  1736
 Renormalizing I=  4 Err= 8.06D-01
 Renormalizing I=  5 Err= 6.43D-01
 Renormalizing I=  6 Err= 1.36D+00
 Iteration    15 Dimension   182 NMult  1747
 Renormalizing I=  4 Err= 8.06D-01
 Renormalizing I=  5 Err= 6.42D-01
 Renormalizing I=  6 Err= 1.36D+00
 Iteration    16 Dimension   190 NMult  1755
 Renormalizing I=  4 Err= 8.06D-01
 Renormalizing I=  5 Err= 6.41D-01
 Renormalizing I=  6 Err= 1.36D+00
 Iteration    17 Dimension   199 NMult  1764
 Renormalizing I=  4 Err= 8.06D-01
 Renormalizing I=  5 Err= 6.40D-01
 Renormalizing I=  6 Err= 1.36D+00
 Davidson failed to converge within maximum sub-space dimensions.
  Restart with updated initial guess:
 Iteration     1 Dimension    23 NMult  1787
 Renormalizing I=  4 Err= 3.75D-01
 Renormalizing I=  5 Err= 2.99D+00
 Renormalizing I=  6 Err= 3.38D+00
 Iteration     2 Dimension    35 NMult  1799
 Renormalizing I=  4 Err= 7.81D-01
 Renormalizing I=  5 Err= 1.41D+00
 Renormalizing I=  6 Err= 3.38D+00
 Iteration     3 Dimension    47 NMult  1811
 Renormalizing I=  4 Err= 7.95D-01
 Renormalizing I=  5 Err= 1.11D+00
 Renormalizing I=  6 Err= 2.88D+00
 Iteration     4 Dimension    59 NMult  1823
 Renormalizing I=  4 Err= 8.02D-01
 Renormalizing I=  5 Err= 8.53D-01
 Renormalizing I=  6 Err= 1.56D+00
 Iteration     5 Dimension    71 NMult  1835
 Renormalizing I=  4 Err= 8.02D-01
 Renormalizing I=  5 Err= 7.82D-01
 Renormalizing I=  6 Err= 1.52D+00
 Iteration     6 Dimension    83 NMult  1847
 Renormalizing I=  4 Err= 8.03D-01
 Renormalizing I=  5 Err= 7.71D-01
 Renormalizing I=  6 Err= 1.48D+00
 Iteration     7 Dimension    95 NMult  1859
 Renormalizing I=  4 Err= 8.05D-01
 Renormalizing I=  5 Err= 7.28D-01
 Renormalizing I=  6 Err= 1.42D+00
 Iteration     8 Dimension   106 NMult  1870
 Renormalizing I=  4 Err= 8.05D-01
 Renormalizing I=  5 Err= 7.11D-01
 Renormalizing I=  6 Err= 1.40D+00
 Iteration     9 Dimension   117 NMult  1881
 Renormalizing I=  4 Err= 8.06D-01
 Renormalizing I=  5 Err= 6.62D-01
 Renormalizing I=  6 Err= 1.37D+00
 Iteration    10 Dimension   129 NMult  1893
 Renormalizing I=  4 Err= 8.06D-01
 Renormalizing I=  5 Err= 6.62D-01
 Renormalizing I=  6 Err= 1.37D+00
 Iteration    11 Dimension   140 NMult  1904
 Renormalizing I=  4 Err= 8.06D-01
 Renormalizing I=  5 Err= 6.58D-01
 Renormalizing I=  6 Err= 1.37D+00
 Iteration    12 Dimension   151 NMult  1915
 Renormalizing I=  4 Err= 8.06D-01
 Renormalizing I=  5 Err= 6.58D-01
 Renormalizing I=  6 Err= 1.37D+00
 Iteration    13 Dimension   162 NMult  1926
 Renormalizing I=  4 Err= 8.06D-01
 Renormalizing I=  5 Err= 6.56D-01
 Renormalizing I=  6 Err= 1.37D+00
 Iteration    14 Dimension   172 NMult  1936
 Renormalizing I=  4 Err= 8.06D-01
 Renormalizing I=  5 Err= 6.55D-01
 Renormalizing I=  6 Err= 1.37D+00
 Iteration    15 Dimension   180 NMult  1944
 Renormalizing I=  4 Err= 8.06D-01
 Renormalizing I=  5 Err= 6.54D-01
 Renormalizing I=  6 Err= 1.37D+00
 Iteration    16 Dimension   184 NMult  1948
 Renormalizing I=  4 Err= 8.06D-01
 Renormalizing I=  5 Err= 6.53D-01
 Renormalizing I=  6 Err= 1.37D+00
 Iteration    17 Dimension   191 NMult  1955
 Renormalizing I=  4 Err= 8.06D-01
 Renormalizing I=  5 Err= 6.50D-01
 Renormalizing I=  6 Err= 1.37D+00
 Iteration    18 Dimension   196 NMult  1960
 Renormalizing I=  4 Err= 8.06D-01
 Renormalizing I=  5 Err= 6.47D-01
 Renormalizing I=  6 Err= 1.36D+00
 Davidson failed to converge within maximum sub-space dimensions.
  Restart with updated initial guess:
 Iteration     1 Dimension    20 NMult  1980
 Renormalizing I=  4 Err= 1.51D-01
 Renormalizing I=  5 Err= 2.73D+00
 Renormalizing I=  6 Err= 1.03D+00
 Iteration     2 Dimension    32 NMult  1992
 Renormalizing I=  4 Err= 7.97D-01
 Renormalizing I=  5 Err= 1.51D+00
 Renormalizing I=  6 Err= 3.38D+00
 Iteration     3 Dimension    44 NMult  2004
 Renormalizing I=  4 Err= 7.96D-01
 Renormalizing I=  5 Err= 1.22D+00
 Renormalizing I=  6 Err= 3.38D+00
 Iteration     4 Dimension    56 NMult  2016
 Renormalizing I=  4 Err= 8.01D-01
 Renormalizing I=  5 Err= 9.07D-01
 Renormalizing I=  6 Err= 1.67D+00
 Iteration     5 Dimension    68 NMult  2028
 Renormalizing I=  4 Err= 8.03D-01
 Renormalizing I=  5 Err= 8.29D-01
 Renormalizing I=  6 Err= 1.51D+00
 Iteration     6 Dimension    80 NMult  2040
 Renormalizing I=  4 Err= 8.03D-01
 Renormalizing I=  5 Err= 8.09D-01
 Renormalizing I=  6 Err= 1.46D+00
 Iteration     7 Dimension    91 NMult  2051
 Renormalizing I=  4 Err= 8.05D-01
 Renormalizing I=  5 Err= 7.61D-01
 Renormalizing I=  6 Err= 1.41D+00
 Iteration     8 Dimension   102 NMult  2062
 Renormalizing I=  4 Err= 8.06D-01
 Renormalizing I=  5 Err= 7.39D-01
 Renormalizing I=  6 Err= 1.40D+00
 Iteration     9 Dimension   113 NMult  2073
 Renormalizing I=  4 Err= 8.06D-01
 Renormalizing I=  5 Err= 6.91D-01
 Renormalizing I=  6 Err= 1.37D+00
 Iteration    10 Dimension   124 NMult  2084
 Renormalizing I=  4 Err= 8.06D-01
 Renormalizing I=  5 Err= 6.76D-01
 Renormalizing I=  6 Err= 1.37D+00
 Iteration    11 Dimension   136 NMult  2096
 Renormalizing I=  4 Err= 8.06D-01
 Renormalizing I=  5 Err= 6.66D-01
 Renormalizing I=  6 Err= 1.36D+00
 Iteration    12 Dimension   147 NMult  2107
 Renormalizing I=  4 Err= 8.06D-01
 Renormalizing I=  5 Err= 6.64D-01
 Renormalizing I=  6 Err= 1.36D+00
 Iteration    13 Dimension   157 NMult  2117
 Renormalizing I=  4 Err= 8.06D-01
 Renormalizing I=  5 Err= 6.62D-01
 Renormalizing I=  6 Err= 1.36D+00
 Iteration    14 Dimension   168 NMult  2128
 Renormalizing I=  4 Err= 8.06D-01
 Renormalizing I=  5 Err= 6.61D-01
 Renormalizing I=  6 Err= 1.36D+00
 Iteration    15 Dimension   178 NMult  2138
 Renormalizing I=  4 Err= 8.06D-01
 Renormalizing I=  5 Err= 6.59D-01
 Renormalizing I=  6 Err= 1.36D+00
 Iteration    16 Dimension   188 NMult  2148
 Renormalizing I=  4 Err= 8.06D-01
 Renormalizing I=  5 Err= 6.56D-01
 Renormalizing I=  6 Err= 1.36D+00
 Iteration    17 Dimension   194 NMult  2154
 Renormalizing I=  4 Err= 8.06D-01
 Renormalizing I=  5 Err= 6.55D-01
 Renormalizing I=  6 Err= 1.36D+00
 Iteration    18 Dimension   197 NMult  2157
 Renormalizing I=  4 Err= 8.06D-01
 Renormalizing I=  5 Err= 6.55D-01
 Renormalizing I=  6 Err= 1.36D+00
 ***********************************************************************
 Excited states from <AA,BB:AA,BB> singles matrix:
 ***********************************************************************
 
 Ground to excited state transition densities written to RWF  633
 Ground to excited state transition electric dipole moments (Au):
       state          X           Y           Z        Dip. S.      Osc.
         1         0.0000      0.0000      0.0000      0.0000      0.0000
         2         0.0000      0.0000      0.0000      0.0000      0.0000
         3         0.0000      0.0000      0.0000      0.0000      0.0000
         4         0.0384     -0.2560      0.0546      0.0700      0.0014
         5         0.4646     -0.0592      0.0465      0.2215      0.0020
         6         0.3445      0.0895     -0.0365      0.1280      0.0010
 Ground to excited state transition velocity dipole moments (Au):
       state          X           Y           Z        Dip. S.      Osc.
         1         0.0000      0.0000      0.0000      0.0000      0.0000
         2         0.0000      0.0000      0.0000      0.0000      0.0000
         3         0.0000      0.0000      0.0000      0.0000      0.0000
         4        -0.0023     -0.0020     -0.0112      0.0001      0.0029
         5        -0.0111      0.0060      0.0265      0.0009      0.0424
         6        -0.0070     -0.0082      0.0399      0.0017      0.1017
 Ground to excited state transition magnetic dipole moments (Au):
       state          X           Y           Z
         1         0.0000      0.0000      0.0000
         2         0.0000      0.0000      0.0000
         3         0.0000      0.0000      0.0000
         4        -0.0692     -0.0731     -0.0213
         5         0.3769     -0.0429     -0.0790
         6         0.5239     -1.0040      0.1949
 Ground to excited state transition velocity quadrupole moments (Au):
       state          XX          YY          ZZ          XY          XZ          YZ
         1         0.0000      0.0000      0.0000      0.0000      0.0000      0.0000
         2         0.0000      0.0000      0.0000      0.0000      0.0000      0.0000
         3         0.0000      0.0000      0.0000      0.0000      0.0000      0.0000
         4         0.0165     -0.0096      0.0004     -0.0142     -0.0604      0.0016
         5         0.0019      0.0205     -0.0094     -0.0169     -0.1279      0.0420
         6         0.1275     -0.0213      0.0014     -0.0032      0.1487     -0.0783
 <0|del|b> * <b|rxdel|0> + <0|del|b> * <b|delr+rdel|0>
 Rotatory Strengths (R) in cgs (10**-40 erg-esu-cm/Gauss)
       state          XX          YY          ZZ    R(velocity)
         1         0.0000      0.0000      0.0000      0.0000
         2         0.0000      0.0000      0.0000      0.0000
         3         0.0000      0.0000      0.0000      0.0000
         4         4.8480      2.7232      4.9746      4.1819
         5       -52.9300   -164.6080   -123.9658   -113.8346
         6       541.7936    150.9454     89.1525    260.6305
 1/2[<0|r|b>*<b|rxdel|0> + (<0|rxdel|b>*<b|r|0>)*]
 Rotatory Strengths (R) in cgs (10**-40 erg-esu-cm/Gauss)
       state          XX          YY          ZZ     R(length)
         1         0.0000      0.0000      0.0000      0.0000
         2         0.0000      0.0000      0.0000      0.0000
         3         0.0000      0.0000      0.0000      0.0000
         4         1.8804    -13.2274      0.8238     -3.5077
         5      -123.8278     -1.7940      2.5973    -41.0082
         6      -127.6488     63.5211      5.0287    -19.6997
  1/2[<0|del|b>*<b|r|0> + (<0|r|b>*<b|del|0>)*] (Au)
       state          X           Y           Z        Dip. S.   Osc.(frdel)
         1         0.0000      0.0000      0.0000      0.0000      0.0000
         2         0.0000      0.0000      0.0000      0.0000      0.0000
         3         0.0000      0.0000      0.0000      0.0000      0.0000
         4        -0.0001      0.0005     -0.0006      0.0002      0.0001
         5        -0.0052     -0.0004      0.0012      0.0043      0.0029
         6        -0.0024     -0.0007     -0.0015      0.0046      0.0031

 Excitation energies and oscillator strengths:
 
 Excited State   1:      Triplet-A      -1.5648 eV    -792.34 nm  f=-0.0000  <S**2>=2.000
      11 -> 20         0.13873
      13 -> 20        -0.29685
      15 -> 19        -0.13731
      15 -> 20        -0.51185
      15 -> 23        -0.19244
      16 -> 20        -0.20981
      16 -> 23        -0.11604
      17 -> 20        -0.10232
      13 <- 20        -0.11165
 This state for optimization and/or second-order correction.
 Total Energy, E(TD-HF/TD-KS) =  -157.113758580    
 Copying the excited state density for this state as the 1-particle RhoCI density.
 
 Excited State   2:      Triplet-A      -1.4651 eV    -846.24 nm  f=-0.0000  <S**2>=2.000
       9 -> 19         0.15257
      12 -> 19         0.30950
      12 -> 24        -0.12461
      14 -> 18         0.16006
      14 -> 19         0.50559
      14 -> 20        -0.10907
      14 -> 24        -0.16267
      15 -> 19        -0.16644
      16 -> 19         0.12038
      12 <- 19         0.12212
      14 <- 19         0.10303
 
 Excited State   3:      Triplet-A      -1.0656 eV    -1163.55 nm  f=-0.0000  <S**2>=2.000
      16 -> 18        -0.20771
      16 -> 21        -0.42526
      16 -> 22        -0.25690
      17 -> 21         0.43974
      16 <- 18         0.13617
 
 Excited State   4:      Singlet-A      0.8443 eV 1468.43 nm  f=0.0014  <S**2>=0.000
      16 -> 18        -0.80635
      16 -> 21         0.13749
      16 -> 22         0.12012
      17 -> 18        -0.24026
      17 -> 21        -0.11259
      16 <- 18        -0.45424
      16 <- 21         0.11462
      17 <- 18        -0.12762
      17 <- 21        -0.11023
 
 Excited State   5:      Singlet-A      0.3692 eV 3358.28 nm  f=0.0020  <S**2>=0.000
      17 -> 18         0.38707
      17 -> 19         0.67251
      17 <- 18        -0.29260
      17 <- 19        -0.20250
 
 Excited State   6:      Singlet-A      0.3043 eV 4074.10 nm  f=0.0010  <S**2>=0.000
      16 -> 18        -0.11519
      16 -> 19        -0.22058
      16 -> 20        -0.27254
      16 -> 21         0.46297
      16 -> 22         0.14461
      17 -> 18         0.50427
      17 -> 19        -0.18455
      17 -> 20         0.24922
      17 -> 21         0.28504
      16 <- 18         0.10383
      16 <- 19         0.10219
      16 <- 20         0.12714
      16 <- 21        -0.21746
      17 <- 18        -0.42906
      17 <- 19         0.10852
      17 <- 20        -0.10776
      17 <- 21        -0.12556
 SavETr:  write IOETrn=   770 NScale= 10 NData=  16 NLR=1 LETran=     118.
          IDoAtm=11111111111111
          Differentiating once with respect to electric field.
                with respect to dipole field.
          Differentiating once with respect to nuclear coordinates.
          Keep R1 ints in memory in canonical form, NReq=6077745.
          There are     1 degrees of freedom in the 1st order CPHF.  IDoFFX=0.
 LinEq1:  Iter=  0 NonCon=     1 RMS=2.39D-02 Max=4.75D-01
 AX will form     1 AO Fock derivatives at one time.
 LinEq1:  Iter=  1 NonCon=     1 RMS=6.01D-02 Max=9.45D-01
 LinEq1:  Iter=  2 NonCon=     1 RMS=4.72D-01 Max=1.19D+01
 LinEq1:  Iter=  3 NonCon=     1 RMS=1.37D+00 Max=1.77D+01
 LinEq1:  Iter=  4 NonCon=     1 RMS=2.00D+00 Max=2.51D+01
 LinEq1:  Iter=  5 NonCon=     1 RMS=1.52D+00 Max=1.76D+01
 LinEq1:  Iter=  6 NonCon=     1 RMS=1.77D+00 Max=2.05D+01
 LinEq1:  Iter=  7 NonCon=     1 RMS=7.13D-01 Max=8.16D+00
 LinEq1:  Iter=  8 NonCon=     1 RMS=9.59D-01 Max=1.20D+01
 LinEq1:  Iter=  9 NonCon=     1 RMS=1.02D+00 Max=1.39D+01
 LinEq1:  Iter= 10 NonCon=     1 RMS=8.67D-01 Max=1.37D+01
 LinEq1:  Iter= 11 NonCon=     1 RMS=8.50D-01 Max=9.23D+00
 LinEq1:  Iter= 12 NonCon=     1 RMS=6.59D-01 Max=7.79D+00
 LinEq1:  Iter= 13 NonCon=     1 RMS=2.53D-01 Max=3.40D+00
 LinEq1:  Iter= 14 NonCon=     1 RMS=1.05D-01 Max=1.08D+00
 LinEq1:  Iter= 15 NonCon=     1 RMS=3.77D-02 Max=3.29D-01
 LinEq1:  Iter= 16 NonCon=     1 RMS=1.35D-02 Max=9.92D-02
 LinEq1:  Iter= 17 NonCon=     1 RMS=3.84D-03 Max=3.55D-02
 LinEq1:  Iter= 18 NonCon=     1 RMS=1.43D-03 Max=1.30D-02
 LinEq1:  Iter= 19 NonCon=     1 RMS=4.76D-04 Max=4.55D-03
 LinEq1:  Iter= 20 NonCon=     1 RMS=1.25D-04 Max=1.36D-03
 LinEq1:  Iter= 21 NonCon=     1 RMS=3.54D-05 Max=3.83D-04
 LinEq1:  Iter= 22 NonCon=     1 RMS=1.40D-05 Max=2.71D-04
 LinEq1:  Iter= 23 NonCon=     1 RMS=3.93D-06 Max=3.22D-05
 LinEq1:  Iter= 24 NonCon=     1 RMS=1.05D-06 Max=7.78D-06
 LinEq1:  Iter= 25 NonCon=     1 RMS=3.23D-07 Max=3.66D-06
 LinEq1:  Iter= 26 NonCon=     1 RMS=9.97D-08 Max=1.18D-06
 LinEq1:  Iter= 27 NonCon=     1 RMS=2.79D-08 Max=2.65D-07
 LinEq1:  Iter= 28 NonCon=     1 RMS=9.50D-09 Max=8.74D-08
 LinEq1:  Iter= 29 NonCon=     1 RMS=2.48D-09 Max=2.05D-08
 LinEq1:  Iter= 30 NonCon=     1 RMS=7.24D-10 Max=5.70D-09
 LinEq1:  Iter= 31 NonCon=     1 RMS=1.54D-10 Max=1.40D-09
 LinEq1:  Iter= 32 NonCon=     0 RMS=3.55D-11 Max=2.78D-10
 Linear equations converged to 1.000D-10 1.000D-09 after    32 iterations.
 End of Minotr Frequency-dependent properties file   721 does not exist.
 End of Minotr Frequency-dependent properties file   722 does not exist.

 **********************************************************************

            Population analysis using the SCF density.

 **********************************************************************

 Orbital symmetries:
       Occupied  (A) (A) (A) (A) (A) (A) (A) (A) (A) (A) (A) (A)
                 (A) (A) (A) (A) (A)
       Virtual   (A) (A) (A) (A) (A) (A) (A) (A) (A) (A) (A) (A)
                 (A) (A) (A) (A) (A) (A) (A) (A) (A) (A) (A) (A)
                 (A) (A) (A) (A) (A) (A) (A) (A) (A) (A) (A) (A)
                 (A) (A) (A) (A) (A) (A) (A) (A) (A) (A) (A) (A)
                 (A) (A) (A) (A) (A) (A) (A) (A) (A) (A) (A) (A)
                 (A) (A) (A)
 The electronic state is 1-A.
 Alpha  occ. eigenvalues --  -10.32597 -10.30998 -10.30601 -10.27084  -0.67365
 Alpha  occ. eigenvalues --   -0.62381  -0.61471  -0.55616  -0.38053  -0.37265
 Alpha  occ. eigenvalues --   -0.34203  -0.32123  -0.30887  -0.26242  -0.25044
 Alpha  occ. eigenvalues --   -0.19943  -0.19446
 Alpha virt. eigenvalues --   -0.16795  -0.13992  -0.13443  -0.12484  -0.09493
 Alpha virt. eigenvalues --   -0.07853  -0.06353  -0.02669   0.04437   0.08229
 Alpha virt. eigenvalues --    0.08802   0.10167   0.17325   0.49534   0.51485
 Alpha virt. eigenvalues --    0.54439   0.54738   0.56573   0.62164   0.63063
 Alpha virt. eigenvalues --    0.65715   0.66749   0.67161   0.69209   0.71093
 Alpha virt. eigenvalues --    0.73315   0.76279   0.77671   0.80379   0.82036
 Alpha virt. eigenvalues --    0.82423   0.82976   0.83056   0.88134   0.93141
 Alpha virt. eigenvalues --    0.95913   0.98769   1.03149   1.07903   1.64061
 Alpha virt. eigenvalues --    1.65386   1.66060   1.66910   1.67029   1.67320
 Alpha virt. eigenvalues --    1.68487   1.68535   1.69356   1.70289   1.71199
 Alpha virt. eigenvalues --    1.71782   1.75855   1.77170   1.85688   1.89363
 Alpha virt. eigenvalues --    1.92003   1.95009   1.99609   2.19608   3.89234
 Alpha virt. eigenvalues --    3.93039   3.93809   3.97636
          Condensed to atoms (all electrons):
              1          2          3          4          5          6
     1  C    5.747442   0.049422  -0.000112   0.000001  -0.010980   0.000430
     2  C    0.049422   5.822829   0.004510   0.000583   0.155143   0.204824
     3  C   -0.000112   0.004510   5.756627   0.015916   0.002076  -0.014090
     4  C    0.000001   0.000583   0.015916   5.803081  -0.000052   0.002270
     5  H   -0.010980   0.155143   0.002076  -0.000052   0.826876  -0.049234
     6  H    0.000430   0.204824  -0.014090   0.002270  -0.049234   0.804970
     7  H    0.000196  -0.002812   0.165800   0.001030   0.000169   0.000167
     8  H    0.000011   0.001103   0.098107  -0.006287  -0.000030   0.000208
     9  H    0.000000   0.000014   0.004638   0.143609  -0.000009   0.000076
    10  H    0.000000   0.000000   0.001207   0.003462   0.000000  -0.000005
    11  H    0.000000   0.000034  -0.000946   0.163630  -0.000001   0.000015
    12  H    0.156609   0.000621  -0.000001   0.000000   0.000040  -0.000005
    13  H    0.222505  -0.000922   0.000082   0.000000   0.006672  -0.000583
    14  H    0.004417   0.001216   0.000000   0.000000  -0.000388  -0.000022
              7          8          9         10         11         12
     1  C    0.000196   0.000011   0.000000   0.000000   0.000000   0.156609
     2  C   -0.002812   0.001103   0.000014   0.000000   0.000034   0.000621
     3  C    0.165800   0.098107   0.004638   0.001207  -0.000946  -0.000001
     4  C    0.001030  -0.006287   0.143609   0.003462   0.163630   0.000000
     5  H    0.000169  -0.000030  -0.000009   0.000000  -0.000001   0.000040
     6  H    0.000167   0.000208   0.000076  -0.000005   0.000015  -0.000005
     7  H    0.770816  -0.017676  -0.000057  -0.000016  -0.000024  -0.000029
     8  H   -0.017676   1.064953   0.000218  -0.000029   0.012659   0.000000
     9  H   -0.000057   0.000218   0.638324   0.063890  -0.009396   0.000000
    10  H   -0.000016  -0.000029   0.063890   0.963362   0.057526   0.000000
    11  H   -0.000024   0.012659  -0.009396   0.057526   0.613404   0.000000
    12  H   -0.000029   0.000000   0.000000   0.000000   0.000000   0.653656
    13  H   -0.000001  -0.000001   0.000000   0.000000   0.000000  -0.015121
    14  H   -0.000001   0.000000   0.000000   0.000000   0.000000   0.070525
             13         14
     1  C    0.222505   0.004417
     2  C   -0.000922   0.001216
     3  C    0.000082   0.000000
     4  C    0.000000   0.000000
     5  H    0.006672  -0.000388
     6  H   -0.000583  -0.000022
     7  H   -0.000001  -0.000001
     8  H   -0.000001   0.000000
     9  H    0.000000   0.000000
    10  H    0.000000   0.000000
    11  H    0.000000   0.000000
    12  H   -0.015121   0.070525
    13  H    0.517300   0.041766
    14  H    0.041766   0.959223
 Mulliken atomic charges:
              1
     1  C   -0.169942
     2  C   -0.236566
     3  C   -0.033813
     4  C   -0.127242
     5  H    0.069719
     6  H    0.050979
     7  H    0.082438
     8  H   -0.153239
     9  H    0.158694
    10  H   -0.089398
    11  H    0.163098
    12  H    0.133706
    13  H    0.228303
    14  H   -0.076736
 Sum of Mulliken atomic charges =   0.00000
 Mulliken charges with hydrogens summed into heavy atoms:
              1
     1  C    0.115330
     2  C   -0.115868
     3  C   -0.104613
     4  C    0.105151
 Sum of Mulliken charges with hydrogens summed into heavy atoms =   0.00000
 Electronic spatial extent (au):  <R**2>=           1095.4426
 Charge=              0.0000 electrons
 Dipole moment (field-independent basis, Debye):
    X=             -1.1537    Y=             -1.3214    Z=              0.0786  Tot=              1.7560
 Quadrupole moment (field-independent basis, Debye-Ang):
   XX=            -27.0915   YY=            -30.9849   ZZ=            -34.8379
   XY=             -3.4332   XZ=             -0.8971   YZ=              0.0292
 Traceless Quadrupole moment (field-independent basis, Debye-Ang):
   XX=              3.8799   YY=             -0.0135   ZZ=             -3.8664
   XY=             -3.4332   XZ=             -0.8971   YZ=              0.0292
 Octapole moment (field-independent basis, Debye-Ang**2):
  XXX=            -34.2899  YYY=             -9.7238  ZZZ=              0.1102  XYY=             -8.2145
  XXY=             14.3938  XXZ=              1.7039  XZZ=             -1.9384  YZZ=             -2.4660
  YYZ=              0.4876  XYZ=             -1.1774
 Hexadecapole moment (field-independent basis, Debye-Ang**3):
 XXXX=          -1653.5360 YYYY=           -251.0737 ZZZZ=            -36.9525 XXXY=            -67.9501
 XXXZ=             -8.3202 YYYX=            -38.4478 YYYZ=             -0.2646 ZZZX=              0.7776
 ZZZY=              0.0080 XXYY=           -237.1818 XXZZ=           -296.4522 YYZZ=            -48.1743
 XXYZ=             -0.0226 YYXZ=             -0.3829 ZZXY=             -0.1207
 N-N= 8.380186665204D+01 E-N=-5.295502253487D+02  KE= 1.544462144260D+02
 Calling FoFJK, ICntrl=      5127 FMM=F ISym2X=0 I1Cent= 0 IOpClX= 0 NMat=1 NMatS=1 NMatT=0.
 ***** Axes restored to original set *****
 -------------------------------------------------------------------
 Center     Atomic                   Forces (Hartrees/Bohr)
 Number     Number              X              Y              Z
 -------------------------------------------------------------------
      1        6           0.010283635    0.091149281    0.011929522
      2        6          -0.015607283   -0.105741873   -0.005930986
      3        6           0.007872902    0.092549753    0.002096164
      4        6          -0.023863133    0.002203635   -0.009090383
      5        1           0.001783855    0.045348235    0.004735348
      6        1           0.026624896    0.058630171   -0.000688042
      7        1          -0.024456172   -0.057622899   -0.001969498
      8        1           0.007029281   -0.037975311    0.005182258
      9        1           0.026064557    0.056315066    0.007156803
     10        1          -0.026496753   -0.003213720    0.001407504
     11        1           0.032526381   -0.045242539   -0.004334048
     12        1          -0.023313108   -0.068685153   -0.000919135
     13        1           0.026264541   -0.045469508   -0.011803154
     14        1          -0.024713597    0.017754861    0.002227648
 -------------------------------------------------------------------
 Cartesian Forces:  Max     0.105741873 RMS     0.037098453

 GradGradGradGradGradGradGradGradGradGradGradGradGradGradGradGradGradGrad
 Berny optimization.
 Internal  Forces:  Max     0.069848637 RMS     0.022371343
 Search for a local minimum.
 Step number   1 out of a maximum of   72
 All quantities printed in internal units (Hartrees-Bohrs-Radians)
 Mixed Optimization -- RFO/linear search
 Second derivative matrix not updated -- first step.
 ITU=  0
     Eigenvalues ---    0.00230   0.00230   0.00230   0.00230   0.00230
     Eigenvalues ---    0.00230   0.00230   0.00236   0.00237   0.00260
     Eigenvalues ---    0.00324   0.03396   0.03422   0.03583   0.04318
     Eigenvalues ---    0.04569   0.05102   0.05259   0.05312   0.08878
     Eigenvalues ---    0.10571   0.14902   0.16000   0.16000   0.16000
     Eigenvalues ---    0.16000   0.16000   0.16000   0.16000   0.16000
     Eigenvalues ---    0.16000   0.18878   0.19737   0.20500   0.20835
     Eigenvalues ---    0.40030
 RFO step:  Lambda=-1.29625344D-01 EMin= 2.30000000D-03
 Linear search not attempted -- first point.
 Maximum step size (   0.300) exceeded in Quadratic search.
    -- Step size scaled by   0.394
 Iteration  1 RMS(Cart)=  0.04307271 RMS(Int)=  0.00043258
 Iteration  2 RMS(Cart)=  0.00054564 RMS(Int)=  0.00001591
 Iteration  3 RMS(Cart)=  0.00000024 RMS(Int)=  0.00001591
 Variable       Old X    -DE/DX   Delta X   Delta X   Delta X     New X
                                 (Linear)    (Quad)   (Total)
    R1        4.78556  -0.01239   0.00000  -0.02979  -0.02979   4.75576
    R2        3.59114  -0.06985   0.00000  -0.15229  -0.15229   3.43885
    R3        1.98213   0.05213   0.00000   0.03874   0.03874   2.02088
    R4        3.71261  -0.02760   0.00000  -0.06202  -0.06202   3.65059
    R5        4.72908   0.00446   0.00000   0.01061   0.01061   4.73969
    R6        2.37854  -0.03808   0.00000  -0.04438  -0.04438   2.33416
    R7        2.61807  -0.06065   0.00000  -0.08572  -0.08572   2.53234
    R8        4.50931  -0.01242   0.00000  -0.02831  -0.02831   4.48100
    R9        2.89286  -0.06234   0.00000  -0.10433  -0.10433   2.78853
   R10        3.55871  -0.03727   0.00000  -0.08057  -0.08057   3.47814
   R11        2.44625  -0.06161   0.00000  -0.07620  -0.07620   2.37004
   R12        4.06204   0.02672   0.00000   0.06433   0.06433   4.12637
   R13        3.54792  -0.05575   0.00000  -0.12015  -0.12015   3.42776
    A1        2.70066   0.01460   0.00000   0.01933   0.01934   2.72000
    A2        1.33729   0.00708   0.00000   0.00917   0.00920   1.34649
    A3        2.41246   0.01385   0.00000   0.01874   0.01872   2.43118
    A4        2.23062  -0.02208   0.00000  -0.03079  -0.03081   2.19981
    A5        1.16065  -0.02838   0.00000  -0.03840  -0.03837   1.12228
    A6        1.07522   0.00672   0.00000   0.00943   0.00948   1.08470
    A7        2.06884  -0.00702   0.00000  -0.01195  -0.01195   2.05689
    A8        1.58072  -0.01148   0.00000  -0.01228  -0.01227   1.56845
    A9        2.63362   0.01850   0.00000   0.02423   0.02423   2.65785
   A10        1.32671  -0.01043   0.00000  -0.01938  -0.01938   1.30733
   A11        1.30691   0.02893   0.00000   0.04361   0.04361   1.35052
   A12        1.98640   0.00053   0.00000   0.00063   0.00062   1.98703
   A13        1.59937  -0.00221   0.00000  -0.00296  -0.00295   1.59641
   A14        2.54695   0.01124   0.00000   0.01534   0.01533   2.56228
   A15        2.69741   0.00168   0.00000   0.00233   0.00232   2.69973
   A16        1.74983  -0.01178   0.00000  -0.01597  -0.01596   1.73387
   A17        0.94758   0.01345   0.00000   0.01829   0.01830   0.96589
   A18        2.52134  -0.00501   0.00000  -0.00691  -0.00692   2.51442
   A19        2.61873   0.00106   0.00000   0.00137   0.00137   2.62009
   A20        1.48189  -0.00344   0.00000  -0.00470  -0.00470   1.47719
   A21        1.14067   0.00380   0.00000   0.00511   0.00510   1.14578
   A22        2.27882   0.00833   0.00000   0.01129   0.01128   2.29009
   A23        1.13815   0.00454   0.00000   0.00619   0.00619   1.14434
   A24        3.39556  -0.01745   0.00000  -0.03133  -0.03133   3.36422
   A25        3.14159  -0.00070   0.00000  -0.00209  -0.00208   3.13951
    D1       -0.14191  -0.00361   0.00000  -0.01068  -0.01065  -0.15256
    D2        2.99968  -0.00311   0.00000  -0.00919  -0.00922   2.99047
    D3       -3.04780   0.00513   0.00000   0.01523   0.01525  -3.03254
    D4        0.09380   0.00563   0.00000   0.01672   0.01669   0.11049
    D5       -3.03622  -0.00025   0.00000  -0.00074  -0.00071  -3.03692
    D6        0.10538   0.00025   0.00000   0.00076   0.00073   0.10611
    D7        3.14159  -0.00019   0.00000  -0.00057  -0.00055   3.14105
    D8        0.00000   0.00094   0.00000   0.00281   0.00282   0.00282
    D9        0.00000  -0.00168   0.00000  -0.00501  -0.00502  -0.00502
   D10        0.00000  -0.00122   0.00000  -0.00364  -0.00364  -0.00364
   D11        3.14159  -0.00009   0.00000  -0.00026  -0.00027   3.14132
   D12        3.14159  -0.00271   0.00000  -0.00808  -0.00811   3.13348
   D13        0.00000   0.00051   0.00000   0.00152   0.00153   0.00153
   D14        3.14159   0.00164   0.00000   0.00490   0.00490  -3.13669
   D15        3.14159  -0.00098   0.00000  -0.00293  -0.00294   3.13865
   D16        0.00000   0.00418   0.00000   0.01246   0.01249   0.01249
   D17        3.01782   0.00064   0.00000   0.00192   0.00195   3.01977
   D18        3.08707   0.00177   0.00000   0.00529   0.00531   3.09238
   D19        3.14159   0.00155   0.00000   0.00461   0.00461  -3.13698
   D20       -0.12377  -0.00199   0.00000  -0.00593  -0.00593  -0.12970
   D21       -0.05452  -0.00086   0.00000  -0.00257  -0.00256  -0.05708
   D22        3.14159   0.00502   0.00000   0.01500   0.01497  -3.12662
   D23       -0.12377   0.00149   0.00000   0.00445   0.00443  -0.11934
   D24       -0.05452   0.00262   0.00000   0.00782   0.00779  -0.04673
         Item               Value     Threshold  Converged?
 Maximum Force            0.069849     0.000450     NO 
 RMS     Force            0.022371     0.000300     NO 
 Maximum Displacement     0.148287     0.001800     NO 
 RMS     Displacement     0.043028     0.001200     NO 
 Predicted change in Energy=-4.692464D-02
 GradGradGradGradGradGradGradGradGradGradGradGradGradGradGradGradGradGrad

                          Input orientation:                          
 ---------------------------------------------------------------------
 Center     Atomic      Atomic             Coordinates (Angstroms)
 Number     Number       Type             X           Y           Z
 ---------------------------------------------------------------------
      1          6           0        3.051071    0.965236    0.001530
      2          6           0        0.911687   -0.360101    0.001185
      3          6           0       -1.252257    0.908007    0.001652
      4          6           0       -3.175953   -0.478420    0.000095
      5          1           0        1.564638   -1.408594    0.002613
      6          1           0       -0.043556   -1.299919   -0.001768
      7          1           0       -0.539042    2.199820   -0.002129
      8          1           0       -2.071694    2.556072    0.007251
      9          1           0       -3.569483   -1.669227    0.008256
     10          1           0       -5.343281   -0.709560    0.131579
     11          1           0       -4.093061    1.083968    0.089928
     12          1           0        4.074966    2.465390   -0.111206
     13          1           0        3.394663   -0.041052   -0.112267
     14          1           0        4.955852    0.671421   -0.130250
 ---------------------------------------------------------------------
                    Distance matrix (angstroms):
                    1          2          3          4          5
     1  C    0.000000
     2  C    2.516641   0.000000
     3  C    4.303708   2.508137   0.000000
     4  C    6.392181   4.089353   2.371243   0.000000
     5  H    2.800813   1.235185   3.647126   4.830987   0.000000
     6  H    3.835056   1.340059   2.517123   3.238330   1.611867
     7  H    3.796462   2.942417   1.475626   3.758494   4.176857
     8  H    5.364095   4.171890   1.840551   3.229177   5.379730
     9  H    7.125460   4.668485   3.465792   1.254174   5.140735
    10  H    8.560783   6.266080   4.401123   2.183580   6.944395
    11  H    7.145666   5.209675   2.847617   1.813895   6.183045
    12  H    1.819762   4.242919   5.551350   7.826509   4.617624
    13  H    1.069402   2.505959   4.744212   6.586115   2.287435
    14  H    1.931809   4.175714   6.214016   8.213732   3.980509
                    6          7          8          9         10
     6  H    0.000000
     7  H    3.534640   0.000000
     8  H    4.356844   1.573539   0.000000
     9  H    3.545229   4.914591   4.482914   0.000000
    10  H    5.334172   5.618104   4.624186   2.020527   0.000000
    11  H    4.699981   3.726212   2.501969   2.803727   2.186671
    12  H    5.581376   4.622931   6.148470   8.691774   9.941963
    13  H    3.663101   4.528539   6.053131   7.152958   8.766871
    14  H    5.375572   5.704934   7.277171   8.841898  10.394605
                   11         12         13         14
    11  H    0.000000
    12  H    8.286462   0.000000
    13  H    7.574468   2.597126   0.000000
    14  H    9.060988   1.998661   1.716174   0.000000
 Stoichiometry    C4H10
 Framework group  C1[X(C4H10)]
 Deg. of freedom    36
 Full point group                 C1      NOp   1
 Largest Abelian subgroup         C1      NOp   1
 Largest concise Abelian subgroup C1      NOp   1
                         Standard orientation:                         
 ---------------------------------------------------------------------
 Center     Atomic      Atomic             Coordinates (Angstroms)
 Number     Number       Type             X           Y           Z
 ---------------------------------------------------------------------
      1          6           0       -3.243123    0.236946   -0.037423
      2          6           0       -0.945539   -0.789731   -0.014542
      3          6           0        1.028824    0.756933    0.007160
      4          6           0        3.120853   -0.359189    0.029029
      5          1           0       -1.452033   -1.916267   -0.022498
      6          1           0        0.126957   -1.593060   -0.001442
      7          1           0        0.148917    1.941509    0.003224
      8          1           0        1.620014    2.499952    0.009676
      9          1           0        3.670484   -1.486506    0.025241
     10          1           0        5.300847   -0.297644   -0.079885
     11          1           0        3.821178    1.312112   -0.051651
     12          1           0       -4.459937    1.586223    0.064313
     13          1           0       -3.449912   -0.806440    0.073042
     14          1           0       -5.092603   -0.309634    0.074638
 ---------------------------------------------------------------------
 Rotational constants (GHZ):     12.5407492      1.3086301      1.1852579
 Standard basis: 6-31G(d) (6D, 7F)
 There are    80 symmetry adapted basis functions of A   symmetry.
 Integral buffers will be    131072 words long.
 Raffenetti 2 integral format.
 Two-electron integral symmetry is turned on.
    80 basis functions,   152 primitive gaussians,    80 cartesian basis functions
    17 alpha electrons       17 beta electrons
       nuclear repulsion energy        84.5959418506 Hartrees.
 NAtoms=   14 NActive=   14 NUniq=   14 SFac= 1.00D+00 NAtFMM=   60 NAOKFM=F Big=F
 One-electron integrals computed using PRISM.
 NBasis=    80 RedAO= T  NBF=    80
 NBsUse=    80 1.00D-06 NBFU=    80
 Initial guess read from the read-write file.
 B after Tr=     0.000000    0.000000    0.000000
         Rot=    1.000000    0.000000    0.000000    0.000000 Ang=   0.00 deg.
 Initial guess orbital symmetries:
       Occupied  (A) (A) (A) (A) (A) (A) (A) (A) (A) (A) (A) (A)
                 (A) (A) (A) (A) (A)
       Virtual   (A) (A) (A) (A) (A) (A) (A) (A) (A) (A) (A) (A)
                 (A) (A) (A) (A) (A) (A) (A) (A) (A) (A) (A) (A)
                 (A) (A) (A) (A) (A) (A) (A) (A) (A) (A) (A) (A)
                 (A) (A) (A) (A) (A) (A) (A) (A) (A) (A) (A) (A)
                 (A) (A) (A) (A) (A) (A) (A) (A) (A) (A) (A) (A)
                 (A) (A) (A)
 Harris functional with IExCor=  402 diagonalized for initial guess.
 ExpMin= 1.61D-01 ExpMax= 3.05D+03 ExpMxC= 4.57D+02 IAcc=1 IRadAn=         1 AccDes= 0.00D+00
 HarFok:  IExCor=  402 AccDes= 0.00D+00 IRadAn=         1 IDoV= 1
 ScaDFX=  1.000000  1.000000  1.000000  1.000000
 FoFCou: FMM=F IPFlag=           0 FMFlag=      100000 FMFlg1=           0
         NFxFlg=           0 DoJE=T BraDBF=F KetDBF=T FulRan=T
         Omega=  0.000000  0.000000  1.000000  0.000000  0.000000 ICntrl=     500 IOpCl=  0
         NMat0=    1 NMatS0=    1 NMatT0=    0 NMatD0=    1 NMtDS0=    0 NMtDT0=    0
         I1Cent=           4 NGrid=           0.
 Petite list used in FoFCou.
 Requested convergence on RMS density matrix=1.00D-08 within 128 cycles.
 Requested convergence on MAX density matrix=1.00D-06.
 Requested convergence on             energy=1.00D-06.
 No special actions if energy rises.
 Keep R1 ints in memory in canonical form, NReq=6309447.
 Integral accuracy reduced to 1.0D-05 until final iterations.
 EnCoef did     6 forward-backward iterations
 EnCoef did   100 forward-backward iterations
 Initial convergence to 1.0D-05 achieved.  Increase integral accuracy.
 SCF Done:  E(RB3LYP) =  -157.104588872     A.U. after   30 cycles
             Convg  =    0.1801D-08             -V/T =  2.0168
 ExpMin= 1.61D-01 ExpMax= 3.05D+03 ExpMxC= 4.57D+02 IAcc=3 IRadAn=         5 AccDes= 0.00D+00
[...]
     11          1           0       -3.588339    0.546117    0.046745
     12          1           0        3.725942    1.696734   -0.057086
     13          1           0        3.484557   -0.105044   -0.124378
     14          1           0        4.604755    1.291138   -0.128301
 ---------------------------------------------------------------------
                    Distance matrix (angstroms):
                    1          2          3          4          5
     1  C    0.000000
     2  C    2.416762   0.000000
     3  C    4.138858   2.615114   0.000000
     4  C    6.194872   4.102099   2.329793   0.000000
     5  H    2.504931   1.042315   3.637762   4.895412   0.000000
     6  H    3.343206   0.927131   2.405715   3.384795   1.510874
     7  H    3.577523   2.611609   0.907253   3.223299   3.648653
     8  H    5.203880   4.008124   1.422764   2.568597   5.042281
     9  H    6.724776   4.477301   3.110364   0.897446   5.135105
    10  H    8.530302   6.438525   4.526434   2.349794   7.183791
    11  H    6.528755   4.641004   2.429767   0.907236   5.523955
    12  H    1.096127   3.504798   4.979594   7.146758   3.570917
    13  H    1.193907   2.562295   4.833910   6.638312   2.144348
    14  H    1.715311   4.047951   5.821481   7.908041   3.872241
                    6          7          8          9         10
     6  H    0.000000
     7  H    2.721828   0.000000
     8  H    3.823291   1.628239   0.000000
     9  H    3.650627   4.017036   3.465832   0.000000
    10  H    5.678254   5.353819   4.203880   2.114197   0.000000
    11  H    4.033669   3.224749   2.133409   1.630695   2.137574
    12  H    4.428923   4.298588   5.884249   7.726946   9.459112
    13  H    3.425247   4.436308   6.050993   7.038119   8.984280
    14  H    4.969196   5.193562   6.799217   8.430786  10.243192
                   11         12         13         14
    11  H    0.000000
    12  H    7.404958   0.000000
    13  H    7.104868   1.819121   0.000000
    14  H    8.228759   0.970511   1.790023   0.000000
 Stoichiometry    C4H10
 Framework group  C1[X(C4H10)]
 Deg. of freedom    36
 Full point group                 C1      NOp   1
 Largest Abelian subgroup         C1      NOp   1
 Largest concise Abelian subgroup C1      NOp   1
                         Standard orientation:                         
 ---------------------------------------------------------------------
 Center     Atomic      Atomic             Coordinates (Angstroms)
 Number     Number       Type             X           Y           Z
 ---------------------------------------------------------------------
      1          6           0       -3.107759    0.302532   -0.023433
      2          6           0       -0.998489   -0.877108   -0.010370
      3          6           0        0.999812    0.809723    0.004265
      4          6           0        3.059603   -0.278784    0.022989
      5          1           0       -1.620767   -1.713272   -0.015062
      6          1           0       -0.169671   -1.292576   -0.006246
      7          1           0        0.300960    1.388248   -0.000501
      8          1           0        1.821137    1.971475    0.007942
      9          1           0        3.474360   -1.074626    0.018397
     10          1           0        5.406171   -0.221986   -0.086202
     11          1           0        3.416111    0.554751   -0.011614
     12          1           0       -3.977205    0.969732   -0.003363
     13          1           0       -3.558104   -0.798644    0.076631
     14          1           0       -4.811991    0.478717    0.059309
 ---------------------------------------------------------------------
 Rotational constants (GHZ):     15.3123428      1.3893454      1.2739626
 Standard basis: 6-31G(d) (6D, 7F)
 There are    80 symmetry adapted basis functions of A   symmetry.
 Integral buffers will be    131072 words long.
 Raffenetti 2 integral format.
 Two-electron integral symmetry is turned on.
    80 basis functions,   152 primitive gaussians,    80 cartesian basis functions
    17 alpha electrons       17 beta electrons
       nuclear repulsion energy        94.5967679058 Hartrees.
 NAtoms=   14 NActive=   14 NUniq=   14 SFac= 1.00D+00 NAtFMM=   60 NAOKFM=F Big=F
 One-electron integrals computed using PRISM.
 NBasis=    80 RedAO= T  NBF=    80
 NBsUse=    80 1.00D-06 NBFU=    80
 Initial guess read from the read-write file.
 B after Tr=     0.000000    0.000000    0.000000
         Rot=    1.000000    0.000000    0.000000    0.000000 Ang=   0.00 deg.
 Initial guess orbital symmetries:
       Occupied  (A) (A) (A) (A) (A) (A) (A) (A) (A) (A) (A) (A)
                 (A) (A) (A) (A) (A)
       Virtual   (A) (A) (A) (A) (A) (A) (A) (A) (A) (A) (A) (A)
                 (A) (A) (A) (A) (A) (A) (A) (A) (A) (A) (A) (A)
                 (A) (A) (A) (A) (A) (A) (A) (A) (A) (A) (A) (A)
                 (A) (A) (A) (A) (A) (A) (A) (A) (A) (A) (A) (A)
                 (A) (A) (A) (A) (A) (A) (A) (A) (A) (A) (A) (A)
                 (A) (A) (A)
 Harris functional with IExCor=  402 diagonalized for initial guess.
 ExpMin= 1.61D-01 ExpMax= 3.05D+03 ExpMxC= 4.57D+02 IAcc=1 IRadAn=         1 AccDes= 0.00D+00
 HarFok:  IExCor=  402 AccDes= 0.00D+00 IRadAn=         1 IDoV= 1
 ScaDFX=  1.000000  1.000000  1.000000  1.000000
 FoFCou: FMM=F IPFlag=           0 FMFlag=      100000 FMFlg1=           0
         NFxFlg=           0 DoJE=T BraDBF=F KetDBF=T FulRan=T
         Omega=  0.000000  0.000000  1.000000  0.000000  0.000000 ICntrl=     500 IOpCl=  0
         NMat0=    1 NMatS0=    1 NMatT0=    0 NMatD0=    1 NMtDS0=    0 NMtDT0=    0
         I1Cent=           4 NGrid=           0.
 Petite list used in FoFCou.
 Requested convergence on RMS density matrix=1.00D-08 within 128 cycles.
 Requested convergence on MAX density matrix=1.00D-06.
 Requested convergence on             energy=1.00D-06.
 No special actions if energy rises.
 Keep R1 ints in memory in canonical form, NReq=6309447.
 Integral accuracy reduced to 1.0D-05 until final iterations.
 Problem detected with inexpensive integrals.
 Switching to full accuracy and repeating last cycle.
 SCF Done:  E(RB3LYP) =  -157.326944701     A.U. after   38 cycles
             Convg  =    0.6906D-08             -V/T =  2.0016
 ExpMin= 1.61D-01 ExpMax= 3.05D+03 ExpMxC= 4.57D+02 IAcc=3 IRadAn=         5 AccDes= 0.00D+00
 HarFok:  IExCor=  205 AccDes= 0.00D+00 IRadAn=         5 IDoV=-2
 ScaDFX=  1.000000  1.000000  1.000000  1.000000
 Range of M.O.s used for correlation:     5    80
 NBasis=    80 NAE=    17 NBE=    17 NFC=     4 NFV=     0
 NROrb=     76 NOA=    13 NOB=    13 NVA=    63 NVB=    63

 **** Warning!!: The smallest alpha delta epsilon is  0.24967695D-01

 Orbital symmetries:
       Occupied  (A) (A) (A) (A) (A) (A) (A) (A) (A) (A) (A) (A)
                 (A) (A) (A) (A) (A)
       Virtual   (A) (A) (A) (A) (A) (A) (A) (A) (A) (A) (A) (A)
                 (A) (A) (A) (A) (A) (A) (A) (A) (A) (A) (A) (A)
                 (A) (A) (A) (A) (A) (A) (A) (A) (A) (A) (A) (A)
                 (A) (A) (A) (A) (A) (A) (A) (A) (A) (A) (A) (A)
                 (A) (A) (A) (A) (A) (A) (A) (A) (A) (A) (A) (A)
                 (A) (A) (A)
 Generating guess from densities on rwf.
 Convergence on wavefunction:    0.000001000000000
 Iteration     1 Dimension    12 NMult    12
 CISAX will form    12 AO SS matrices at one time.
 Renormalizing I=  6 Err= 2.49D-01
 Iteration     2 Dimension    24 NMult    24
 Renormalizing I=  4 Err= 9.75D-01
 Renormalizing I=  5 Err= 1.26D+00
 Renormalizing I=  6 Err= 1.45D+00
 Iteration     3 Dimension    36 NMult    36
 Renormalizing I=  4 Err= 1.60D-01
 Renormalizing I=  5 Err= 4.68D+00
 Renormalizing I=  6 Err= 4.58D+00
 Iteration     4 Dimension    48 NMult    48
 Renormalizing I=  4 Err= 6.57D-01
 Renormalizing I=  5 Err= 1.24D+01
 Renormalizing I=  6 Err= 4.54D+00
 No map to state      5
 No map to state      6
 Iteration     5 Dimension    60 NMult    60
 Renormalizing I=  4 Err= 7.09D-01
 Renormalizing I=  5 Err= 6.61D+00
 Renormalizing I=  6 Err= 4.48D+00
 No map to state      5
 No map to state      6
 Iteration     6 Dimension    72 NMult    72
 Renormalizing I=  4 Err= 7.15D-01
 Renormalizing I=  5 Err= 5.60D+00
 Renormalizing I=  6 Err= 5.31D+00
 No map to state      6
 Iteration     7 Dimension    84 NMult    84
 Renormalizing I=  4 Err= 7.16D-01
 Renormalizing I=  5 Err= 5.02D+00
 Renormalizing I=  6 Err= 6.07D+00
 No map to state      6
 Iteration     8 Dimension    96 NMult    96
 Renormalizing I=  4 Err= 7.16D-01
 Renormalizing I=  5 Err= 4.79D+00
 Renormalizing I=  6 Err= 6.36D+00
 No map to state      6
 Iteration     9 Dimension   108 NMult   108
 Renormalizing I=  4 Err= 7.16D-01
 Renormalizing I=  5 Err= 4.39D+00
 Renormalizing I=  6 Err= 7.31D+00
 No map to state      6
 Iteration    10 Dimension   120 NMult   120
 Renormalizing I=  4 Err= 7.16D-01
 Renormalizing I=  5 Err= 3.81D+00
 Renormalizing I=  6 Err= 7.72D+00
 No map to state      6
 Iteration    11 Dimension   132 NMult   132
 Renormalizing I=  4 Err= 7.16D-01
 Renormalizing I=  5 Err= 3.65D+00
 Renormalizing I=  6 Err= 8.74D+00
 No map to state      6
 Iteration    12 Dimension   144 NMult   144
 Renormalizing I=  4 Err= 7.16D-01
 Renormalizing I=  5 Err= 3.41D+00
 Renormalizing I=  6 Err= 9.86D+00
 No map to state      6
 Iteration    13 Dimension   156 NMult   156
 Renormalizing I=  4 Err= 7.16D-01
 Renormalizing I=  5 Err= 3.27D+00
 Renormalizing I=  6 Err= 1.06D+01
 No map to state      6
 Iteration    14 Dimension   168 NMult   168
 Renormalizing I=  4 Err= 7.16D-01
 Renormalizing I=  5 Err= 3.23D+00
 Renormalizing I=  6 Err= 1.09D+01
 No map to state      6
 Iteration    15 Dimension   180 NMult   180
 Renormalizing I=  4 Err= 7.16D-01
 Renormalizing I=  5 Err= 3.19D+00
 Renormalizing I=  6 Err= 1.10D+01
 No map to state      6
 Iteration    16 Dimension   191 NMult   191
 Renormalizing I=  4 Err= 7.16D-01
 Renormalizing I=  5 Err= 3.06D+00
 Renormalizing I=  6 Err= 1.11D+01
 No map to state      6
 Davidson failed to converge within maximum sub-space dimensions.
  Restart with updated initial guess:
 Iteration     1 Dimension    24 NMult   215
 Renormalizing I=  4 Err= 6.22D-01
 Renormalizing I=  5 Err= 4.27D+00
 Renormalizing I=  6 Err= 4.31D+00
 No map to state      6
 Iteration     2 Dimension    36 NMult   227
 Renormalizing I=  4 Err= 6.97D-01
 Renormalizing I=  5 Err= 7.59D+00
 Renormalizing I=  6 Err= 4.31D+00
 Iteration     3 Dimension    48 NMult   239
 Renormalizing I=  4 Err= 7.14D-01
 Renormalizing I=  5 Err= 4.07D+00
 Renormalizing I=  6 Err= 4.31D+00
 Iteration     4 Dimension    60 NMult   251
 Renormalizing I=  4 Err= 7.15D-01
 Renormalizing I=  5 Err= 3.78D+00
 Renormalizing I=  6 Err= 4.31D+00
 Iteration     5 Dimension    71 NMult   262
 Renormalizing I=  4 Err= 7.15D-01
 Renormalizing I=  5 Err= 3.57D+00
 Renormalizing I=  6 Err= 4.31D+00
 Iteration     6 Dimension    83 NMult   274
 Renormalizing I=  4 Err= 7.15D-01
 Renormalizing I=  5 Err= 3.24D+00
 Renormalizing I=  6 Err= 6.44D+00
 No map to state      6
 Iteration     7 Dimension    95 NMult   286
 Renormalizing I=  4 Err= 7.16D-01
 Renormalizing I=  5 Err= 3.15D+00
 Renormalizing I=  6 Err= 7.92D+00
 No map to state      6
 Iteration     8 Dimension   106 NMult   297
 Renormalizing I=  4 Err= 7.16D-01
 Renormalizing I=  5 Err= 3.05D+00
 Renormalizing I=  6 Err= 9.92D+00
 No map to state      6
 Iteration     9 Dimension   117 NMult   308
 Renormalizing I=  4 Err= 7.16D-01
 Renormalizing I=  5 Err= 3.03D+00
 Renormalizing I=  6 Err= 1.04D+01
 No map to state      6
 Iteration    10 Dimension   128 NMult   319
 Renormalizing I=  4 Err= 7.16D-01
 Renormalizing I=  5 Err= 3.01D+00
 Renormalizing I=  6 Err= 1.06D+01
 No map to state      6
 Iteration    11 Dimension   139 NMult   330
 Renormalizing I=  4 Err= 7.16D-01
 Renormalizing I=  5 Err= 3.00D+00
 Renormalizing I=  6 Err= 1.07D+01
 No map to state      6
 Iteration    12 Dimension   150 NMult   341
 Renormalizing I=  4 Err= 7.16D-01
 Renormalizing I=  5 Err= 2.98D+00
 Renormalizing I=  6 Err= 1.11D+01
 No map to state      6
 Iteration    13 Dimension   161 NMult   352
 Renormalizing I=  4 Err= 7.16D-01
 Renormalizing I=  5 Err= 2.96D+00
 Renormalizing I=  6 Err= 1.15D+01
 No map to state      6
 Iteration    14 Dimension   172 NMult   363
 Renormalizing I=  4 Err= 7.16D-01
 Renormalizing I=  5 Err= 2.94D+00
 Renormalizing I=  6 Err= 1.20D+01
 No map to state      6
 Iteration    15 Dimension   183 NMult   374
 Renormalizing I=  4 Err= 7.16D-01
 Renormalizing I=  5 Err= 2.92D+00
 Renormalizing I=  6 Err= 1.24D+01
 No map to state      6
 Iteration    16 Dimension   194 NMult   385
 Renormalizing I=  4 Err= 7.16D-01
 Renormalizing I=  5 Err= 2.90D+00
 Renormalizing I=  6 Err= 1.28D+01
 No map to state      6
 Davidson failed to converge within maximum sub-space dimensions.
  Restart with updated initial guess:
 Iteration     1 Dimension    24 NMult   409
 Renormalizing I=  4 Err= 6.22D-01
 Renormalizing I=  5 Err= 4.27D+00
 Renormalizing I=  6 Err= 4.30D+00
 No map to state      6
 Iteration     2 Dimension    36 NMult   421
 Renormalizing I=  4 Err= 6.95D-01
 Renormalizing I=  5 Err= 6.35D+00
 Renormalizing I=  6 Err= 4.31D+00
 Iteration     3 Dimension    47 NMult   432
 Renormalizing I=  4 Err= 7.14D-01
 Renormalizing I=  5 Err= 4.20D+00
 Renormalizing I=  6 Err= 4.31D+00
 Iteration     4 Dimension    59 NMult   444
 Renormalizing I=  4 Err= 7.16D-01
 Renormalizing I=  5 Err= 3.53D+00
 Renormalizing I=  6 Err= 4.31D+00
 Iteration     5 Dimension    70 NMult   455
 Renormalizing I=  4 Err= 7.16D-01
 Renormalizing I=  5 Err= 3.46D+00
 Renormalizing I=  6 Err= 4.31D+00
 Iteration     6 Dimension    81 NMult   466
 Renormalizing I=  4 Err= 7.16D-01
 Renormalizing I=  5 Err= 3.33D+00
 Renormalizing I=  6 Err= 5.34D+00
 No map to state      6
 Iteration     7 Dimension    92 NMult   477
 Renormalizing I=  4 Err= 7.16D-01
 Renormalizing I=  5 Err= 3.28D+00
 Renormalizing I=  6 Err= 6.17D+00
 No map to state      6
 Iteration     8 Dimension   103 NMult   488
 Renormalizing I=  4 Err= 7.16D-01
 Renormalizing I=  5 Err= 3.20D+00
 Renormalizing I=  6 Err= 7.55D+00
 No map to state      6
 Iteration     9 Dimension   114 NMult   499
 Renormalizing I=  4 Err= 7.16D-01
 Renormalizing I=  5 Err= 3.12D+00
 Renormalizing I=  6 Err= 8.28D+00
 No map to state      6
 Iteration    10 Dimension   125 NMult   510
 Renormalizing I=  4 Err= 7.16D-01
 Renormalizing I=  5 Err= 3.08D+00
 Renormalizing I=  6 Err= 8.69D+00
 No map to state      6
 Iteration    11 Dimension   136 NMult   521
 Renormalizing I=  4 Err= 7.16D-01
 Renormalizing I=  5 Err= 3.06D+00
 Renormalizing I=  6 Err= 9.04D+00
 No map to state      6
 Iteration    12 Dimension   147 NMult   532
 Renormalizing I=  4 Err= 7.16D-01
 Renormalizing I=  5 Err= 3.04D+00
 Renormalizing I=  6 Err= 9.35D+00
 No map to state      6
 Iteration    13 Dimension   158 NMult   543
 Renormalizing I=  4 Err= 7.16D-01
 Renormalizing I=  5 Err= 3.02D+00
 Renormalizing I=  6 Err= 9.51D+00
 No map to state      6
 Iteration    14 Dimension   169 NMult   554
 Renormalizing I=  4 Err= 7.16D-01
 Renormalizing I=  5 Err= 3.02D+00
 Renormalizing I=  6 Err= 9.55D+00
 No map to state      6
 Iteration    15 Dimension   180 NMult   565
 Renormalizing I=  4 Err= 7.16D-01
 Renormalizing I=  5 Err= 3.01D+00
 Renormalizing I=  6 Err= 9.80D+00
 No map to state      6
 Iteration    16 Dimension   191 NMult   576
 Renormalizing I=  4 Err= 7.16D-01
 Renormalizing I=  5 Err= 2.99D+00
 Renormalizing I=  6 Err= 1.01D+01
 No map to state      6
 Iteration    17 Dimension   198 NMult   583
 Renormalizing I=  4 Err= 7.16D-01
 Renormalizing I=  5 Err= 2.99D+00
 Renormalizing I=  6 Err= 1.02D+01
 No map to state      6
 Davidson failed to converge within maximum sub-space dimensions.
  Restart with updated initial guess:
 Iteration     1 Dimension    19 NMult   602
 Renormalizing I=  4 Err= 6.86D-01
 Renormalizing I=  5 Err= 1.32D+01
 Renormalizing I=  6 Err= 4.31D+00
 No map to state      5
 No map to state      6
 Iteration     2 Dimension    31 NMult   614
 Renormalizing I=  4 Err= 6.88D-01
 Renormalizing I=  5 Err= 7.07D+00
 Renormalizing I=  6 Err= 4.30D+00
 No map to state      5
 Iteration     3 Dimension    43 NMult   626
 Renormalizing I=  4 Err= 7.13D-01
 Renormalizing I=  5 Err= 4.37D+00
 Renormalizing I=  6 Err= 4.30D+00
 Iteration     4 Dimension    55 NMult   638
 Renormalizing I=  4 Err= 7.16D-01
 Renormalizing I=  5 Err= 3.37D+00
 Renormalizing I=  6 Err= 5.30D+00
 No map to state      6
 Iteration     5 Dimension    66 NMult   649
 Renormalizing I=  4 Err= 7.16D-01
 Renormalizing I=  5 Err= 3.13D+00
 Renormalizing I=  6 Err= 8.52D+00
 No map to state      6
 Iteration     6 Dimension    77 NMult   660
 Renormalizing I=  4 Err= 7.16D-01
 Renormalizing I=  5 Err= 3.08D+00
 Renormalizing I=  6 Err= 8.91D+00
 No map to state      6
 Iteration     7 Dimension    88 NMult   671
 Renormalizing I=  4 Err= 7.16D-01
 Renormalizing I=  5 Err= 3.01D+00
 Renormalizing I=  6 Err= 9.53D+00
 No map to state      6
 Iteration     8 Dimension    99 NMult   682
 Renormalizing I=  4 Err= 7.16D-01
 Renormalizing I=  5 Err= 2.99D+00
 Renormalizing I=  6 Err= 9.93D+00
 No map to state      6
 Iteration     9 Dimension   110 NMult   693
 Renormalizing I=  4 Err= 7.16D-01
 Renormalizing I=  5 Err= 2.96D+00
 Renormalizing I=  6 Err= 1.07D+01
 No map to state      6
 Iteration    10 Dimension   121 NMult   704
 Renormalizing I=  4 Err= 7.16D-01
 Renormalizing I=  5 Err= 2.94D+00
 Renormalizing I=  6 Err= 1.11D+01
 No map to state      6
 Iteration    11 Dimension   132 NMult   715
 Renormalizing I=  4 Err= 7.16D-01
 Renormalizing I=  5 Err= 2.94D+00
 Renormalizing I=  6 Err= 1.12D+01
 No map to state      6
 Iteration    12 Dimension   143 NMult   726
 Renormalizing I=  4 Err= 7.16D-01
 Renormalizing I=  5 Err= 2.93D+00
 Renormalizing I=  6 Err= 1.14D+01
 No map to state      6
 Iteration    13 Dimension   154 NMult   737
 Renormalizing I=  4 Err= 7.16D-01
 Renormalizing I=  5 Err= 2.92D+00
 Renormalizing I=  6 Err= 1.15D+01
 No map to state      6
 Iteration    14 Dimension   165 NMult   748
 Renormalizing I=  4 Err= 7.16D-01
 Renormalizing I=  5 Err= 2.92D+00
 Renormalizing I=  6 Err= 1.16D+01
 No map to state      6
 Iteration    15 Dimension   174 NMult   757
 Renormalizing I=  4 Err= 7.16D-01
 Renormalizing I=  5 Err= 2.92D+00
 Renormalizing I=  6 Err= 1.16D+01
 No map to state      6
 Iteration    16 Dimension   181 NMult   764
 Renormalizing I=  4 Err= 7.16D-01
 Renormalizing I=  5 Err= 2.92D+00
 Renormalizing I=  6 Err= 1.17D+01
 No map to state      6
 Iteration    17 Dimension   191 NMult   774
 Renormalizing I=  4 Err= 7.16D-01
 Renormalizing I=  5 Err= 2.91D+00
 Renormalizing I=  6 Err= 1.18D+01
 No map to state      6
 Davidson failed to converge within maximum sub-space dimensions.
  Restart with updated initial guess:
 Iteration     1 Dimension    23 NMult   797
 Renormalizing I=  4 Err= 6.22D-01
 Renormalizing I=  5 Err= 4.28D+00
 Renormalizing I=  6 Err= 4.30D+00
 No map to state      6
 Iteration     2 Dimension    35 NMult   809
 Renormalizing I=  4 Err= 6.95D-01
 Renormalizing I=  5 Err= 6.35D+00
 Renormalizing I=  6 Err= 4.31D+00
 Iteration     3 Dimension    46 NMult   820
 Renormalizing I=  4 Err= 7.14D-01
 Renormalizing I=  5 Err= 4.22D+00
 Renormalizing I=  6 Err= 4.31D+00
 Iteration     4 Dimension    57 NMult   831
 Renormalizing I=  4 Err= 7.16D-01
 Renormalizing I=  5 Err= 3.55D+00
 Renormalizing I=  6 Err= 4.31D+00
 Iteration     5 Dimension    68 NMult   842
 Renormalizing I=  4 Err= 7.16D-01
 Renormalizing I=  5 Err= 3.41D+00
 Renormalizing I=  6 Err= 4.90D+00
 Iteration     6 Dimension    79 NMult   853
 Renormalizing I=  4 Err= 7.16D-01
 Renormalizing I=  5 Err= 3.21D+00
 Renormalizing I=  6 Err= 7.35D+00
 No map to state      6
 Iteration     7 Dimension    90 NMult   864
